<?xml version="1.0"?>
<VTKFile type="UnstructuredGrid">
  <UnstructuredGrid>
  <Piece NumberOfPoints="3000"  NumberOfCells="1414">
    <Points>
      <DataArray type="Float64" NumberOfComponents="3" format="ascii">
3.99433 -16.0356 0
602.835 16.131 0
596.045 115.908 0
-2.85862 83.7347 0
330 50 0
300 80 0
270 50 0
300 20 0
8.75984 -15.6971 0
13.526 -15.3644 0
18.2932 -15.0313 0
23.0602 -14.6995 0
27.8819 -14.3629 0
32.7031 -14.0275 0
37.7532 -13.6749 0
42.8025 -13.3236 0
47.623 -12.9872 0
52.4426 -12.6519 0
57.2613 -12.3158 0
62.0789 -11.9811 0
66.8953 -11.6456 0
71.7106 -11.3119 0
76.5246 -10.9776 0
81.3373 -10.6453 0
86.1485 -10.3129 0
90.9584 -9.98266 0
95.7667 -9.65254 0
100.573 -9.32502 0
105.379 -8.99791 0
110.182 -8.67374 0
114.984 -8.35033 0
119.784 -8.03022 0
124.582 -7.71125 0
129.378 -7.39597 0
134.172 -7.08222 0
138.965 -6.77258 0
143.755 -6.46489 0
148.543 -6.16174 0
153.329 -5.86099 0
158.112 -5.56523 0
162.894 -5.27234 0
167.673 -4.98493 0
172.449 -4.70088 0
177.223 -4.42282 0
181.995 -4.14862 0
186.764 -3.88095 0
191.53 -3.61769 0
196.293 -3.36153 0
201.054 -3.11036 0
205.812 -2.8669 0
210.566 -2.62907 0
215.318 -2.39963 0
220.067 -2.17656 0
224.812 -1.96265 0
229.554 -1.756 0
234.294 -1.55942 0
239.03 -1.37122 0
243.763 -1.19417 0
248.493 -1.02692 0
253.222 -0.871987 0
257.95 -0.728445 0
262.678 -0.59819 0
267.408 -0.480815 0
272.142 -0.376906 0
276.885 -0.286888 0
281.637 -0.208711 0
286.403 -0.142705 0
291.186 -0.0866666 0
295.991 -0.0365543 0
300.818 0.0118772 0
305.667 0.0612381 0
310.538 0.11333 0
315.429 0.172909 0
320.335 0.242479 0
325.255 0.324067 0
330.183 0.41855 0
335.118 0.526621 0
340.056 0.648553 0
344.996 0.783517 0
349.935 0.931908 0
354.873 1.0918 0
359.808 1.26404 0
364.74 1.44617 0
369.669 1.63944 0
374.595 1.84119 0
379.516 2.05296 0
384.435 2.27206 0
389.349 2.50022 0
394.26 2.73477 0
399.167 2.97757 0
404.071 3.22597 0
408.971 3.48189 0
413.868 3.74273 0
418.762 4.01043 0
423.653 4.28242 0
428.54 4.56069 0
433.425 4.84266 0
438.306 5.13034 0
443.185 5.42118 0
448.06 5.71722 0
452.933 6.0159 0
457.804 6.31928 0
462.671 6.62482 0
467.537 6.93461 0
472.4 7.2461 0
477.26 7.56141 0
482.118 7.878 0
486.974 8.19798 0
491.828 8.51886 0
496.68 8.84276 0
501.53 9.16717 0
506.378 9.49426 0
511.224 9.82153 0
516.069 10.1511 0
520.912 10.4806 0
525.753 10.8122 0
530.593 11.1433 0
535.431 11.4761 0
540.268 11.8083 0
545.104 12.1421 0
549.938 12.4749 0
554.772 12.8091 0
559.604 13.1421 0
564.435 13.4763 0
569.266 13.8093 0
574.096 14.1434 0
578.924 14.4761 0
583.751 14.81 0
588.523 15.1389 0
593.294 15.4691 0
598.065 15.7986 0
602.506 20.8993 0
602.178 25.6676 0
601.852 30.4344 0
601.526 35.2018 0
601.189 40.1669 0
600.852 45.1331 0
600.454 51.0252 0
600.056 56.9194 0
599.72 61.907 0
599.383 66.8959 0
599.048 71.8852 0
598.711 76.8759 0
598.375 81.8668 0
598.037 86.859 0
597.7 91.8323 0
597.361 96.8066 0
597.036 101.582 0
596.708 106.358 0
596.38 111.133 0
591.279 115.573 0
586.513 115.244 0
581.745 114.914 0
576.978 114.585 0
572.156 114.252 0
567.334 113.919 0
562.284 113.57 0
557.234 113.222 0
552.413 112.888 0
547.593 112.556 0
542.774 112.223 0
537.956 111.891 0
533.14 111.559 0
528.324 111.228 0
523.51 110.897 0
518.696 110.567 0
513.885 110.238 0
509.074 109.91 0
504.265 109.583 0
499.458 109.258 0
494.652 108.934 0
489.848 108.613 0
485.046 108.292 0
480.246 107.974 0
475.447 107.658 0
470.65 107.345 0
465.855 107.034 0
461.062 106.727 0
456.271 106.422 0
451.483 106.121 0
446.696 105.822 0
441.912 105.529 0
437.13 105.238 0
432.35 104.953 0
427.573 104.671 0
422.798 104.395 0
418.026 104.123 0
413.256 103.857 0
408.489 103.596 0
403.725 103.341 0
398.964 103.092 0
394.205 102.85 0
389.45 102.614 0
384.697 102.386 0
379.948 102.164 0
375.201 101.952 0
370.458 101.747 0
365.718 101.551 0
360.981 101.364 0
356.247 101.188 0
351.516 101.022 0
346.786 100.868 0
342.058 100.726 0
337.329 100.596 0
332.598 100.48 0
327.862 100.377 0
323.119 100.287 0
318.366 100.21 0
313.599 100.144 0
308.815 100.087 0
304.009 100.037 0
299.181 99.9877 0
294.331 99.9379 0
289.46 99.8854 0
284.569 99.8256 0
279.661 99.7559 0
274.741 99.674 0
269.812 99.5791 0
264.876 99.4705 0
259.937 99.3479 0
254.997 99.2122 0
250.057 99.0629 0
245.119 98.9021 0
240.183 98.7288 0
235.25 98.5455 0
230.32 98.351 0
225.394 98.148 0
220.471 97.9348 0
215.552 97.7143 0
210.637 97.4846 0
205.725 97.2484 0
200.817 97.0039 0
195.913 96.7537 0
191.012 96.496 0
186.114 96.2332 0
181.22 95.9636 0
176.329 95.6895 0
171.441 95.4092 0
166.556 95.1251 0
161.674 94.8352 0
156.795 94.542 0
151.919 94.2437 0
147.046 93.9426 0
142.175 93.6368 0
137.307 93.3288 0
132.441 93.0165 0
127.578 92.7024 0
122.717 92.3845 0
117.859 92.0653 0
113.003 91.7426 0
108.148 91.419 0
103.296 91.0924 0
98.4462 90.7651 0
93.598 90.4352 0
88.7516 90.1051 0
83.907 89.7725 0
79.064 89.4401 0
74.2226 89.1057 0
69.3828 88.7716 0
64.5444 88.4357 0
59.7074 88.1004 0
54.8716 87.7636 0
50.037 87.4277 0
45.2036 87.0905 0
40.3712 86.7543 0
35.5397 86.4169 0
30.709 86.0807 0
25.8791 85.7433 0
21.0511 85.4072 0
16.2236 85.0698 0
11.4518 84.7372 0
6.68067 84.4031 0
1.91033 84.0701 0
-2.52701 78.9667 0
-2.19568 74.1987 0
-1.86647 69.4325 0
-1.53716 64.6659 0
-1.19677 59.7015 0
-0.856381 54.7359 0
-0.455116 48.8444 0
-0.0531582 42.9508 0
0.285554 37.9636 0
0.62517 32.975 0
0.963669 27.986 0
1.3036 22.9956 0
1.64289 18.0049 0
1.98407 13.0129 0
2.32376 8.03973 0
2.66571 3.06549 0
2.99408 -1.70978 0
3.32482 -6.48573 0
3.6562 -11.2609 0
329.793 53.5222 0
329.173 56.9957 0
328.44 59.5471 0
327.485 62.0237 0
326.174 64.6598 0
324.611 67.1548 0
322.773 69.5287 0
320.708 71.7071 0
317.963 74.0275 0
314.961 76.0031 0
311.449 77.7292 0
307.743 78.9836 0
303.905 79.7448 0
296.478 79.7925 0
293.004 79.1729 0
290.453 78.4403 0
287.976 77.4851 0
285.34 76.1742 0
282.845 74.6113 0
280.471 72.7734 0
278.293 70.7075 0
275.972 67.9632 0
273.997 64.9612 0
272.271 61.4494 0
271.016 57.7429 0
270.255 53.9047 0
270.207 46.4778 0
270.827 43.0043 0
271.56 40.4529 0
272.515 37.9763 0
273.826 35.3402 0
275.389 32.8452 0
277.227 30.4713 0
279.292 28.2929 0
282.037 25.9725 0
285.039 23.9969 0
288.551 22.2708 0
292.257 21.0164 0
296.095 20.2552 0
303.522 20.2075 0
306.996 20.8271 0
309.547 21.5597 0
312.024 22.5149 0
314.66 23.8258 0
317.155 25.3887 0
319.529 27.2266 0
321.707 29.2925 0
324.028 32.0368 0
326.003 35.0388 0
327.729 38.5506 0
328.984 42.2571 0
329.745 46.0953 0
369.234 47.9226 0
381.027 52.6541 0
55.8927 40.9128 0
365.766 59.6171 0
326.174 87.3244 0
317.895 88.6576 0
283.011 83.4441 0
316.987 16.5551 0
592.442 22.4426 0
589.72 105.586 0
7.53905 77.4306 0
13.3904 -8.28193 0
4.67379 73.9858 0
0.763097 76.0398 0
5.20156 81.1421 0
0.431693 80.8084 0
586.306 108.484 0
588.351 112.31 0
593.449 107.868 0
593.119 112.641 0
595.31 25.8856 0
599.218 23.8284 0
594.776 18.7288 0
599.546 19.0594 0
10.0045 -5.32692 0
11.5805 -12.3331 0
6.47931 -7.89466 0
6.8124 -12.6675 0
537.025 61.2013 0
389.916 53.3636 0
227.812 49.998 0
218.234 48.9848 0
208.426 48.3659 0
198.72 47.7856 0
189.09 47.1104 0
179.454 46.3392 0
169.796 45.5151 0
160.13 44.698 0
150.446 43.8749 0
140.763 43.0697 0
131.089 42.2871 0
121.385 41.5048 0
111.681 40.7968 0
101.997 40.1189 0
92.3049 39.4167 0
82.6088 38.7442 0
72.916 38.1197 0
63.433 37.5721 0
60.6735 41.4019 0
54.8853 37.0446 0
231.193 45.1866 0
52.6539 33.1505 0
56.5628 33.4273 0
61.3482 33.4922 0
65.9855 33.7426 0
70.8317 33.9435 0
75.6752 34.2403 0
80.5197 34.566 0
85.3663 34.8934 0
90.2106 35.2265 0
95.0568 35.5713 0
99.9074 35.9076 0
104.75 36.2645 0
109.589 36.6019 0
114.426 36.9223 0
119.27 37.2662 0
124.132 37.6532 0
128.963 37.9887 0
133.8 38.3834 0
138.645 38.7294 0
143.475 39.1167 0
148.308 39.4621 0
153.154 39.8793 0
157.975 40.276 0
162.805 40.6812 0
167.632 41.02 0
172.459 41.4313 0
177.285 41.7819 0
182.106 42.1939 0
186.928 42.5417 0
191.732 42.9002 0
196.554 43.2383 0
201.368 43.5542 0
206.215 43.8609 0
211.093 44.1243 0
216.118 44.2683 0
221.032 44.6227 0
226.547 44.5293 0
374.081 48.2713 0
379.001 48.4731 0
383.772 48.7633 0
388.754 49.1744 0
392.885 49.5941 0
397.968 51.4734 0
527.637 59.716 0
531.379 57.6831 0
535.767 57.6225 0
538.939 57.834 0
543.336 58.7077 0
546.558 61.629 0
550.922 63.5101 0
543.417 64.3343 0
538.26 64.9878 0
535.09 64.7763 0
530.111 63.0228 0
522.848 59.8785 0
517.29 59.7315 0
512.475 59.6322 0
507.476 59.3537 0
502.688 59.1791 0
497.829 58.9506 0
493.008 58.6695 0
488.202 58.4126 0
483.38 58.1115 0
478.552 57.7899 0
473.726 57.4757 0
468.9 57.1588 0
464.073 56.8471 0
459.246 56.5366 0
454.42 56.231 0
449.594 55.9284 0
444.768 55.6306 0
439.942 55.3366 0
435.117 55.0505 0
430.295 54.7735 0
425.457 54.5386 0
420.663 54.3173 0
415.727 54.1775 0
411.063 54.1725 0
405.554 54.1486 0
401.061 54.8034 0
397.135 57.1122 0
392.298 57.3895 0
388.178 56.9703 0
383.252 56.8347 0
378.495 56.5452 0
229.77 54.4081 0
225.106 53.7496 0
220.354 53.4919 0
215.424 53.1367 0
210.573 52.862 0
205.681 52.5979 0
200.867 52.2676 0
196.04 51.9511 0
191.265 51.673 0
186.45 51.314 0
181.622 50.8538 0
176.79 50.4413 0
171.956 49.9684 0
167.119 49.5566 0
162.28 49.0811 0
157.442 48.6754 0
152.565 48.2351 0
147.711 47.8174 0
142.876 47.3854 0
138.039 46.9978 0
133.206 46.5582 0
128.363 46.1631 0
123.501 45.8126 0
118.634 45.4253 0
113.778 45.0425 0
108.936 44.7217 0
104.103 44.4068 0
99.2564 44.0495 0
94.4107 43.6773 0
89.561 43.3322 0
84.7025 42.9399 0
79.8529 42.6123 0
75.0103 42.2942 0
70.1643 41.9973 0
65.3127 41.6525 0
51.9826 40.6359 0
47.5416 39.0428 0
47.8155 33.964 0
373.546 56.2626 0
371.424 52.0156 0
234.235 54.6329 0
234.376 42.2322 0
235.657 47.7003 0
236.042 51.4493 0
49.4941 30.3467 0
59.1165 29.5978 0
68.7462 29.8633 0
78.4343 30.3898 0
88.1202 31.0485 0
97.8117 31.7176 0
107.497 32.3909 0
117.176 33.0719 0
126.845 33.7509 0
136.516 34.4321 0
146.187 35.123 0
155.833 35.8647 0
165.472 36.5997 0
175.116 37.2886 0
184.754 37.9866 0
194.387 38.672 0
204.043 39.3162 0
213.9 39.7662 0
224.422 39.8154 0
234.178 38.2814 0
367.871 44.1407 0
[...]
    <PointData>
      <DataArray type="Float64" NumberOfComponents="2" Name="Displacement" format="ascii">
3.99433 -16.0356
2.8345 16.131
-3.95489 15.908
-2.85862 -16.2653
0 0
0 0
0 0
0 0
3.97769 -15.6971
3.9617 -15.3644
3.9467 -15.0313
3.93153 -14.6995
3.91584 -14.3629
3.89974 -14.0275
3.88222 -13.6749
3.864 -13.3236
3.84577 -12.9872
3.8267 -12.6519
3.8066 -12.3158
3.78551 -11.9811
3.76323 -11.6456
3.73981 -11.3119
3.71506 -10.9776
3.68906 -10.6453
3.6616 -10.3129
3.63276 -9.98266
3.60235 -9.65254
3.57045 -9.32502
3.53685 -8.99791
3.50166 -8.67374
3.46466 -8.35033
3.42595 -8.03022
3.38531 -7.71125
3.34286 -7.39597
3.29836 -7.08222
3.25194 -6.77258
3.20336 -6.46489
3.15274 -6.16174
3.09984 -5.86099
3.0448 -5.56523
2.98736 -5.27234
2.92766 -4.98493
2.86543 -4.70088
2.80083 -4.42282
2.73357 -4.14862
2.66381 -3.88095
2.59126 -3.61769
2.51607 -3.36153
2.43795 -3.11036
2.35704 -2.8669
2.27304 -2.62907
2.18612 -2.39963
2.09596 -2.17656
2.00276 -1.96265
1.90624 -1.756
1.80668 -1.55942
1.70391 -1.37122
1.59839 -1.19417
1.49027 -1.02692
1.38033 -0.871987
1.26937 -0.728445
1.15867 -0.59819
1.05014 -0.480815
0.945575 -0.376906
0.849208 -0.286888
0.762818 -0.208711
0.689836 -0.142705
0.634158 -0.0866666
0.600891 -0.0365543
0.589322 0.0118772
0.599933 0.0612381
0.631546 0.11333
0.683929 0.172909
0.751709 0.242479
0.832561 0.324067
0.922261 0.41855
1.01833 0.526621
1.11769 0.648553
1.21849 0.783517
1.31895 0.931908
1.41785 1.0918
1.51444 1.26404
1.608 1.44617
1.69833 1.63944
1.78504 1.84119
1.86821 2.05296
1.94762 2.27206
2.02345 2.50022
2.09559 2.73477
2.16423 2.97757
2.2293 3.22597
2.29101 3.48189
2.3493 3.74273
2.40438 4.01043
2.45621 4.28242
2.50496 4.56069
2.55063 4.84266
2.59337 5.13034
2.63319 5.42118
2.67023 5.71722
2.7045 6.0159
2.73615 6.31928
2.7652 6.62482
2.79177 6.93461
2.81588 7.2461
2.83768 7.56141
2.85718 7.878
2.87451 8.19798
2.8897 8.51886
2.90287 8.84276
2.91407 9.16717
2.9234 9.49426
2.9309 9.82153
2.93668 10.1511
2.9408 10.4806
2.94334 10.8122
2.94438 11.1433
2.94399 11.4761
2.94226 11.8083
2.93925 12.1421
2.93506 12.4749
2.92977 12.8091
2.92346 13.1421
2.91621 13.4763
2.90815 13.8093
2.89933 14.1434
2.88991 14.4761
2.87988 14.81
2.8695 15.1389
2.8587 15.4691
2.84741 15.7986
2.506 16.1171
2.17784 16.1033
1.85203 16.0879
1.52602 16.0731
1.18889 16.0573
0.85165 16.0424
0.454043 16.0252
0.0556878 16.0101
-0.280002 15.9976
-0.616611 15.9866
-0.952107 15.9758
-1.28903 15.9665
-1.62532 15.9575
-1.96346 15.9497
-2.3001 15.9419
-2.63894 15.9352
-2.96424 15.9283
-3.29193 15.9222
-3.62011 15.9153
-3.93848 15.5729
-3.92272 15.2437
-3.90816 14.9138
-3.89342 14.5851
-3.87809 14.2515
-3.86231 13.9191
-3.84511 13.5697
-3.82721 13.2216
-3.80931 12.8882
-3.79059 12.556
-3.77086 12.2229
-3.75015 11.8912
-3.72827 11.5587
-3.70528 11.2279
-3.68097 10.8966
-3.65542 10.5673
-3.62844 10.2377
-3.60009 9.91036
-3.57019 9.58308
-3.53881 9.25836
-3.50575 8.93403
-3.47112 8.61258
-3.43468 8.29187
-3.39655 7.97441
-3.35651 7.65806
-3.31467 7.34534
-3.27079 7.03412
-3.225 6.72694
-3.17707 6.42168
-3.12711 6.1209
-3.07489 5.82248
-3.02053 5.52899
-2.96379 5.23832
-2.90479 4.95307
-2.84329 4.67112
-2.77942 4.3951
-2.71291 4.12289
-2.6439 3.85714
-2.57212 3.59574
-2.49771 3.34136
-2.42037 3.09193
-2.34026 2.85011
-2.25707 2.61388
-2.17097 2.38596
-2.08163 2.16435
-1.98927 1.95183
-1.8936 1.74651
-1.7949 1.55119
-1.69299 1.36418
-1.58835 1.18825
-1.4811 1.02205
-1.37204 0.868117
-1.26196 0.725518
-1.15218 0.596217
-1.04458 0.479647
-0.941162 0.376838
-0.845394 0.287015
-0.75963 0.20975
-0.688349 0.143682
-0.633748 0.0870747
-0.601187 0.036571
-0.590251 -0.0123333
-0.601412 -0.0621221
-0.633515 -0.114635
-0.686404 -0.174405
-0.754825 -0.24413
-0.836445 -0.325996
-0.926944 -0.420897
-1.02382 -0.529513
-1.12399 -0.652101
-1.22562 -0.787822
-1.32689 -0.937077
-1.4266 -1.09792
-1.52398 -1.2712
-1.61832 -1.45447
-1.70942 -1.64895
-1.79688 -1.852
-1.88078 -2.06516
-1.96091 -2.28572
-2.03743 -2.51544
-2.11023 -2.75161
-2.17951 -2.99611
-2.24521 -3.24627
-2.30751 -3.50403
-2.36639 -3.76676
-2.42202 -4.03644
-2.47439 -4.31046
-2.52366 -4.59082
-2.56982 -4.87494
-2.61303 -5.16484
-2.65329 -5.45795
-2.69075 -5.75631
-2.72543 -6.05736
-2.75746 -6.36317
-2.78687 -6.67119
-2.81378 -6.9835
-2.83821 -7.29756
-2.8603 -7.61547
-2.88008 -7.93471
-2.89766 -8.25739
-2.91309 -8.58099
-2.92648 -8.90765
-2.93788 -9.23487
-2.94738 -9.56479
-2.95504 -9.89494
-2.96097 -10.2275
-2.96521 -10.5599
-2.96785 -10.8943
-2.96898 -11.2284
-2.96867 -11.5643
-2.967 -11.8996
-2.96405 -12.2364
-2.9599 -12.5723
-2.95463 -12.9095
-2.94835 -13.2457
-2.94112 -13.5831
-2.93309 -13.9193
-2.9243 -14.2567
-2.91495 -14.5928
-2.90502 -14.9302
-2.89466 -15.2628
-2.88364 -15.5969
-2.87183 -15.9299
-2.52701 -16.2512
-2.19568 -16.237
-1.86647 -16.221
-1.53716 -16.2055
-1.19677 -16.1889
-0.856381 -16.1734
-0.455116 -16.1556
-0.0531582 -16.1399
0.285554 -16.1271
0.62517 -16.1157
0.963669 -16.1046
1.3036 -16.095
1.64289 -16.0857
1.98407 -16.0778
2.32376 -16.0699
2.66571 -16.0631
2.99408 -16.0563
3.32482 -16.05
3.6562 -16.0431
0 0
0 0
0 0
0 0
0 0
0 0
0 0
0 0
0 0
0 0
0 0
0 0
0 0
0 0
0 0
0 0
0 0
0 0
0 0
0 0
0 0
0 0
0 0
0 0
0 0
0 0
0 0
0 0
0 0
0 0
0 0
0 0
0 0
0 0
0 0
0 0
0 0
0 0
0 0
0 0
0 0
0 0
0 0
0 0
0 0
0 0
0 0
0 0
0 0
0 0
0 0
0 0
0.0709607 1.50954
-0.08352 2.0388
0.206058 -12.2557
-0.29936 1.37545
-0.592978 0.272383
-0.498208 0.150855
-0.311291 -0.113881
0.309857 0.113157
2.37676 15.4246
-3.25213 15.437
-2.39651 -15.5517
3.46871 -15.3537
-2.16489 -15.7584
-2.31639 -16.0272
-2.66008 -15.707
-2.64779 -16.0408
-3.45744 15.2105
-3.71735 15.3617
-3.4014 15.7018
-3.73131 15.6926
2.14744 15.6295
2.2973 15.8954
2.63757 15.5779
2.62563 15.9085
3.25741 -15.5808
3.74717 -15.4909
3.42816 -15.8346
3.76126 -15.8253
-0.362405 11.6779
-0.109407 2.46459
-0.0064508 -1.64695
0.0216344 -2.08347
0.0379236 -2.55938
0.0538731 -3.0579
0.0751107 -3.57773
0.102144 -4.12088
0.133153 -4.68617
0.165006 -5.2706
0.198133 -5.87282
0.231008 -6.48964
0.263117 -7.1186
0.295533 -7.76064
0.323602 -8.41187
0.349838 -9.06948
0.377583 -9.73407
0.403385 -10.4039
0.42597 -11.0771
0.44375 -11.7381
0.183869 -11.9211
0.461913 -12.3354
0.15336 -1.50408
0.717649 -12.501
0.706366 -12.2276
0.710679 -11.8938
0.702208 -11.5701
0.697213 -11.2325
0.685711 -10.8954
0.672157 -10.5589
0.65836 -10.2231
0.644037 -9.88849
0.628816 -9.55487
0.613998 -9.22231
0.597707 -8.89177
0.5825 -8.56315
0.568175 -8.23658
0.552227 -7.91154
0.533518 -7.58744
0.517769 -7.26793
0.498339 -6.95054
0.481689 -6.6356
0.462496 -6.32464
0.445611 -6.01688
0.424574 -5.71169
0.404663 -5.41188
0.384287 -5.11552
0.367441 -4.82371
0.346743 -4.53632
0.329194 -4.25386
0.308584 -3.97664
0.291197 -3.70479
0.273324 -3.43956
0.256428 -3.17916
0.240538 -2.92534
0.22501 -2.67628
0.211192 -2.43249
0.201722 -2.1889
0.183976 -1.95779
0.181312 -1.70807
0.0674714 1.72057
0.0684767 1.94221
0.0655395 2.16434
0.0575899 2.40371
0.0470722 2.60779
-0.0253647 2.86708
-0.283904 11.027
-0.143324 11.2801
-0.129877 11.5826
-0.136913 11.8021
-0.185063 12.1079
-0.371508 12.3377
-0.487467 12.6441
-0.556525 12.1272
-0.609144 11.7725
-0.600942 11.5531
-0.495051 11.2054
-0.304001 10.698
-0.305307 10.3163
-0.308118 9.98668
-0.299691 9.64514
-0.297414 9.31943
-0.291758 8.99022
-0.282675 8.66493
-0.275019 8.34245
-0.264621 8.02063
-0.252976 7.70055
-0.241783 7.38285
-0.230429 7.06757
-0.219389 6.75501
-0.208427 6.44537
-0.197748 6.13888
-0.187241 5.83577
-0.177003 5.53622
-0.166982 5.24054
-0.157379 4.94894
-0.148239 4.66194
-0.141237 4.37859
-0.134759 4.10267
-0.132198 3.82396
-0.135399 3.56595
-0.137496 3.26796
-0.168198 3.03157
-0.267393 2.83207
-0.274856 2.58809
-0.253493 2.38454
-0.242435 2.14827
-0.225294 1.92684
-0.15076 -1.56061
-0.140518 -1.76588
-0.142972 -1.98213
-0.141381 -2.21402
-0.141932 -2.44936
-0.142465 -2.6938
-0.13947 -2.94106
-0.136524 -3.19544
-0.134727 -3.45307
-0.128786 -3.71876
-0.117346 -3.99089
-0.107556 -4.26855
-0.0940591 -4.55154
-0.0830906 -4.83937
-0.0681788 -5.13199
-0.0564872 -5.42879
-0.0425043 -5.73208
-0.0292841 -6.03773
-0.0148104 -6.34582
-0.00252934 -6.65722
0.0131318 -6.97155
0.0264637 -7.28932
0.0373123 -7.61085
0.0506085 -7.93532
0.0638723 -8.26129
0.0734976 -8.58821
0.0829004 -8.91642
0.0950827 -9.24726
0.108381 -9.57959
0.120076 -9.91347
0.134946 -10.2492
0.145766 -10.5852
0.15608 -10.9216
0.165089 -11.2589
0.177323 -11.5973
0.216095 -12.5292
0.313213 -12.8431
0.654045 -12.8367
-0.207934 1.70392
-0.0619825 1.60609
-0.145447 -1.37057
0.241939 -1.37326
0.0701835 -1.31262
-0.0436406 -1.29484
0.89954 -12.7288
0.966046 -12.0596
0.963404 -11.3883
0.942369 -10.7144
0.911538 -10.0434
0.878916 -9.37647
0.844832 -8.71556
0.80901 -8.06221
0.771987 -7.41801
0.733477 -6.78391
0.693003 -6.16162
0.648341 -5.55448
0.602893 -4.96327
0.558712 -4.38944
0.512884 -3.83557
0.466596 -3.3038
0.421072 -2.79488
0.381696 -2.30285
0.352103 -1.8109
0.368373 -1.38967
0.189323 1.45215
0.210579 1.84239
0.218357 2.30401
0.151676 2.8044
0.090645 3.36174
0.104485 3.93794
0.107048 4.49977
0.101368 5.07455
0.0913922 5.66557
0.0793615 6.27154
0.0656015 6.89057
0.0504517 7.52084
0.0351181 8.16041
0.0211069 8.80761
0.0144228 9.45873
0.019037 10.1142
0.0454301 10.7728
0.081498 11.4043
0.0484093 12.0129
-0.11434 12.6251
-0.55583 12.9709
-0.812859 12.684
-0.796105 12.0025
-0.740691 11.3002
-0.633817 10.5706
-0.622581 9.8473
-0.604099 9.17651
-0.585757 8.52478
-0.560641 7.8821
-0.531046 7.24657
-0.501293 6.62143
-0.471494 6.00841
-0.441691 5.40929
-0.412272 4.82621
-0.385469 4.26282
-0.370417 3.72829
-0.392602 3.23234
-0.419044 2.74956
-0.403047 2.26869
-0.359889 1.81036
-0.275125 -1.48682
-0.297932 -1.89295
-0.316027 -2.34494
-0.327646 -2.82813
-0.335483 -3.33361
-0.334176 -3.86381
-0.31991 -4.41937
-0.301093 -4.99543
-0.280779 -5.59179
-0.260014 -6.20369
-0.236708 -6.82657
-0.216197 -7.46286
-0.197503 -8.11077
-0.179522 -8.76533
-0.160949 -9.4262
-0.136315 -10.0946
-0.114079 -10.7669
-0.094011 -11.4419
-0.0615754 -12.1151
0.0563205 -12.7636
0.494668 -13.0707
-0.188383 1.4936
0.0651472 1.34026
-0.158557 -1.22307
0.272182 -1.2005
0.0457946 -1.16536
1.15553 -12.9128
1.21809 -12.5775
1.23399 -12.2221
1.23661 -11.8886
1.23377 -11.5458
1.22658 -11.2084
1.21212 -10.8715
1.19589 -10.5353
1.17956 -10.2006
1.16206 -9.86632
1.14496 -9.53382
1.12641 -9.20165
1.10824 -8.87195
1.08871 -8.54377
1.0711 -8.21828
1.05018 -7.89372
1.02943 -7.57112
1.00802 -7.25213
0.989741 -6.93633
0.966593 -6.62194
0.944142 -6.31244
0.919945 -6.00527
0.897674 -5.70196
0.869509 -5.40273
0.843241 -5.10764
0.817221 -4.81646
0.791861 -4.52985
0.764087 -4.24802
0.738177 -3.9714
0.709444 -3.70021
0.682878 -3.4344
0.65349 -3.17472
0.626766 -2.92019
0.597481 -2.67196
0.5718 -2.42834
0.546722 -2.18593
0.52401 -1.95235
0.501871 -1.70487
0.485407 -1.49495
0.50677 -1.32177
0.307104 1.3681
0.326295 1.53713
0.351893 1.7491
0.36823 1.9709
0.38234 2.20202
0.388477 2.442
0.387354 2.69124
0.32689 2.95147
0.311571 3.21573
0.329508 3.51269
0.333509 3.78974
0.343557 4.06798
0.34838 4.34864
0.352637 4.63163
0.354665 4.91916
0.35527 5.21047
0.355005 5.50599
0.353991 5.8053
0.352277 6.10824
0.349884 6.41455
0.346893 6.72401
0.343253 7.03643
0.339215 7.35154
0.334588 7.66913
0.329901 7.98894
0.325286 8.31069
0.320512 8.63434
0.316454 8.95961
0.313104 9.28599
0.315127 9.61171
0.314548 9.94017
0.321082 10.2698
0.324177 10.5989
0.347384 10.9279
0.348531 11.2529
0.363862 11.5555
0.345155 11.8809
0.298367 12.1867
0.247282 12.5293
0.132552 12.8354
0.0564229 13.2445
-0.410574 13.2695
-0.737246 13.3092
-1.13662 13.2418
-1.15734 12.8448
-1.08739 12.518
-1.07401 12.1652
-1.12501 11.8108
-1.10998 11.4596
-1.00173 11.112
-0.961569 10.763
-0.959023 10.3815
-0.944476 10.035
-0.931945 9.69363
-0.917688 9.36
-0.907439 9.03094
-0.891856 8.70474
-0.87896 8.38238
-0.862417 8.06058
-0.844736 7.74057
-0.826773 7.42284
-0.808584 7.10761
-0.790151 6.79505
-0.771498 6.48542
-0.75262 6.17892
-0.73352 5.87578
-0.714284 5.57628
-0.694712 5.28053
-0.67548 4.98922
-0.655791 4.70209
-0.637734 4.42076
-0.619754 4.14464
-0.605884 3.87636
-0.596992 3.61804
-0.592564 3.36701
-0.611246 3.1298
-0.599697 2.87881
-0.595879 2.63462
-0.577578 2.39377
-0.552771 2.15822
-0.526774 1.92445
-0.493699 1.70296
-0.457432 1.48714
-0.396978 -1.40058
-0.417075 -1.58982
-0.441583 -1.79929
-0.45924 -2.01556
-0.475585 -2.24219
-0.49049 -2.47777
-0.500874 -2.71937
-0.510818 -2.96693
-0.515543 -3.21947
-0.525428 -3.47747
-0.528003 -3.74284
-0.527272 -4.01524
-0.527443 -4.29386
-0.523727 -4.57713
-0.521031 -4.86547
-0.514995 -5.15837
-0.510504 -5.45467
-0.5046 -5.75825
-0.500611 -6.06405
-0.493365 -6.37241
-0.486927 -6.68435
-0.477708 -6.99893
-0.469302 -7.31653
-0.46421 -7.63831
-0.458073 -7.96168
-0.449889 -8.28785
-0.444655 -8.61429
-0.439678 -8.94269
-0.430927 -9.27283
-0.421458 -9.6053
-0.410273 -9.93914
-0.398667 -10.275
-0.390354 -10.6107
-0.382792 -10.9472
-0.373242 -11.285
-0.363276 -11.6235
-0.347294 -11.968
-0.326847 -12.3026
-0.281233 -12.6484
-0.18511 -12.9621
-0.101662 -13.3604
0.336101 -13.3783
0.67814 -13.3717
1.10607 -13.3295
-0.22686 -1.12399
-0.361813 -1.20843
-0.162415 1.27992
-0.0217796 1.19508
0.0849583 1.13922
0.243437 1.14766
-0.0115114 -1.02663
-0.130631 -1.04885
0.466035 -1.13362
0.327363 -1.07387
0.214925 -1.0559
0.0902127 -1.04454
1.42629 -13.1782
1.49027 -12.4065
1.50161 -11.7085
1.48214 -11.029
1.44877 -10.3577
1.41225 -9.69079
1.37335 -9.02894
1.33336 -8.37413
1.29009 -7.72645
1.24551 -7.08852
1.1984 -6.46371
1.14651 -5.85139
1.08979 -5.25352
1.02911 -4.67235
0.967776 -4.10969
0.904141 -3.56787
0.838502 -3.04821
0.772454 -2.55087
0.709163 -2.07466
0.654689 -1.63227
0.582871 -1.23619
0.371332 1.23115
0.479055 1.66198
0.534143 2.10497
0.561532 2.58562
0.559977 3.09939
0.562735 3.64058
0.584163 4.19806
0.602222 4.76605
0.614066 5.34893
0.621168 5.94726
0.624615 6.55957
0.624861 7.18408
0.622585 7.81896
0.618793 8.46241
0.615603 9.11245
0.615909 9.76734
0.621991 10.425
0.629121 11.0791
0.61377 11.7296
0.545651 12.3976
0.419854 13.149
-0.124097 13.5822
-0.991795 13.5399
-1.41253 13.076
-1.41818 12.3265
-1.38772 11.6227
-1.32965 10.9227
-1.27153 10.2276
-1.23883 9.54769
-1.20456 8.888
-1.1674 8.24012
-1.12714 7.60068
-1.0842 6.97047
-1.03952 6.35145
-0.993147 5.74546
-0.945501 5.15462
-0.898096 4.58193
-0.855196 4.03227
-0.825388 3.51306
-0.797282 3.01115
-0.754876 2.51989
-0.696788 2.04599
-0.618702 1.59819
-0.498917 -1.3094
-0.574059 -1.70915
-0.629654 -2.14479
-0.670031 -2.61313
-0.69752 -3.10761
-0.715832 -3.62591
-0.728622 -4.17032
-0.735405 -4.73774
-0.736733 -5.32283
-0.736027 -5.9253
-0.732705 -6.54339
-0.724232 -7.17325
-0.71531 -7.81449
-0.708916 -8.46455
-0.699312 -9.12134
-0.683129 -9.78548
-0.666816 -10.4551
-0.651671 -11.1288
-0.628395 -11.8112
-0.568566 -12.5015
-0.440855 -13.2455
0.0811552 -13.6609
0.948027 -13.6366
-0.318934 -1.03652
-0.396449 -0.9287
-0.412927 1.27571
-0.524063 1.18135
-0.125042 1.08015
0.150581 1.00409
-0.078401 -0.928086
0.396082 -0.991816
0.14782 -0.917592
1.74334 -13.7047
1.7246 -13.3516
1.77283 -12.9354
1.77044 -12.5753
1.78488 -12.2203
1.77982 -11.8717
1.77508 -11.5293
1.75953 -11.188
1.74273 -10.8514
1.72439 -10.5168
1.70524 -10.1826
1.68595 -9.84994
1.6655 -9.5179
1.64513 -9.18791
1.62306 -8.85873
1.6015 -8.53203
1.57938 -8.20711
1.55652 -7.88443
1.53054 -7.56244
1.50628 -7.24458
1.48211 -6.92945
1.45626 -6.61725
1.4271 -6.30844
1.39957 -6.00272
1.36974 -5.70014
1.34047 -5.40177
1.30564 -5.10743
1.27112 -4.81681
1.23629 -4.531
1.20259 -4.25027
1.16616 -3.97448
1.1306 -3.70416
1.0924 -3.43925
1.05499 -3.18027
1.01541 -2.92673
0.976321 -2.67978
0.936442 -2.43736
0.896161 -2.2031
0.857988 -1.97102
0.816757 -1.75337
0.785224 -1.54489
0.73311 -1.34292
0.679312 -1.15763
0.448362 0.971106
0.482534 1.1527
0.566692 1.37067
0.611737 1.57803
0.653182 1.78951
0.685354 2.00954
0.714159 2.24063
0.737635 2.47739
0.750175 2.72661
0.765693 2.97775
0.765133 3.24165
0.779373 3.50573
0.796745 3.78224
0.812839 4.05632
0.829413 4.33652
0.842765 4.61906
0.855323 4.90618
0.865749 5.19733
0.874988 5.4925
0.882976 5.79151
0.889817 6.09414
0.895481 6.40012
0.900145 6.70932
0.903773 7.02153
0.906544 7.33641
0.908432 7.65383
0.909757 7.97343
0.910237 8.29513
0.910723 8.61862
0.909618 8.9441
0.91082 9.27035
0.90945 9.5982
0.91274 9.92657
0.91187 10.2565
0.918193 10.5855
0.915638 10.9165
0.919303 11.2414
0.911428 11.5731
0.894586 11.8984
0.875215 12.2417
0.825587 12.5841
0.798291 12.9383
0.723531 13.3471
0.724458 13.6895
0.841387 14.046
0.460055 13.9143
0.0714202 13.9045
-0.397185 13.9294
-0.77557 13.8924
-1.17619 13.8249
-1.52873 13.8197
-1.89551 13.927
-1.758 13.5803
-1.72581 13.234
-1.74525 12.8374
-1.72858 12.4868
-1.7133 12.1343
-1.69645 11.7877
-1.67928 11.4368
-1.65748 11.0945
-1.61411 10.746
-1.59191 10.4079
-1.57382 10.0619
-1.55412 9.72899
-1.53583 9.39567
-1.51562 9.06805
-1.49544 8.74215
-1.47351 8.41848
-1.4517 8.09698
-1.42831 7.77726
-1.40431 7.45982
-1.37967 7.14485
-1.3544 6.83258
-1.32845 6.52318
-1.30189 6.21695
-1.27461 5.91402
-1.24679 5.61478
-1.21826 5.31933
-1.18951 5.02825
-1.1601 4.7415
-1.1316 4.46039
-1.10219 4.1839
-1.07709 3.91588
-1.04874 3.6511
-1.03278 3.4006
-1.00308 3.14576
-0.97933 2.89567
-0.94595 2.65038
-0.914752 2.41052
-0.876833 2.17668
-0.836263 1.9442
-0.79335 1.72067
-0.740887 1.50692
-0.689118 1.30025
-0.551885 -1.04392
-0.603459 -1.22806
-0.654153 -1.41753
-0.696436 -1.61939
-0.735608 -1.8278
-0.767867 -2.04687
-0.797891 -2.27316
-0.82391 -2.50691
-0.846898 -2.7484
-0.867066 -2.99701
-0.883208 -3.24959
-0.900732 -3.50893
-0.91374 -3.77445
-0.927421 -4.04687
-0.937326 -4.32565
-0.948013 -4.61015
-0.954266 -4.89866
-0.961746 -5.19116
-0.965436 -5.48761
-0.970664 -5.78668
-0.97418 -6.09258
-0.978235 -6.40253
-0.978545 -6.71456
-0.97934 -7.03011
-0.976969 -7.34779
-0.9768 -7.66514
-0.976034 -7.98856
-0.975376 -8.31499
-0.974862 -8.64148
-0.971512 -8.97095
-0.966818 -9.30112
-0.963198 -9.62924
-0.955517 -9.96305
-0.951653 -10.2986
-0.946349 -10.6342
-0.940091 -10.9718
-0.933044 -11.3096
-0.922323 -11.6496
-0.908377 -11.994
-0.888399 -12.3391
-0.844258 -12.6848
-0.816392 -13.0435
-0.734166 -13.4414
-0.736967 -13.7851
-0.852567 -14.1543
-0.472294 -14.0127
-0.0980369 -13.9911
0.341149 -14.0088
0.725517 -13.9935
1.15484 -13.9512
1.51197 -13.9588
1.87914 -14.0687
-0.482653 -0.857038
-0.136207 -0.804635
-0.269818 -0.843451
0.19417 0.860816
0.325269 0.85567
0.461041 0.818753
-0.372015 1.07173
-0.213288 0.946883
-0.629676 1.10029
0.612232 -0.966494
0.448843 -0.865532
-0.0882062 0.86224
0.0579606 0.850612
0.0805315 -0.774608
-0.0325956 -0.780671
0.320838 -0.803335
0.187477 -0.788177
2.16726 -14.0995
2.09191 -13.4621
2.06946 -12.7492
2.06053 -12.0408
2.03807 -11.3514
2.00194 -10.6758
1.96161 -10.0089
1.91874 -9.34676
1.87305 -8.69054
1.82426 -8.04168
1.7721 -7.4017
1.71625 -6.77224
1.65636 -6.15497
1.59223 -5.55158
1.52007 -4.96331
1.4426 -4.39273
1.36306 -3.84249
1.27873 -3.31405
1.18975 -2.80904
1.09683 -2.32882
1.00112 -1.87806
0.893441 -1.45986
0.760085 -1.06961
0.558513 0.785268
0.640628 1.10816
0.73702 1.49445
0.830096 1.92119
0.900154 2.37791
0.952752 2.86582
0.995681 3.38089
1.0386 3.91878
1.07959 4.47506
1.11377 5.0484
1.14156 5.63826
1.16363 6.24299
1.18044 6.86096
1.19262 7.49038
1.20086 8.12932
1.20535 8.77635
1.20726 9.42955
1.20873 10.0872
1.20837 10.748
1.20039 11.4105
1.1751 12.0854
1.12999 12.7828
1.10497 13.4794
1.14379 14.1017
0.878208 14.3259
0.186895 14.2605
-0.580753 14.2138
-1.31225 14.1714
-1.94896 14.2095
-2.1794 13.9705
-2.09269 13.3419
-2.0424 12.6453
-2.00721 11.9484
-1.96646 11.2599
-1.91981 10.5799
-1.87471 9.90934
-1.83108 9.24914
-1.78462 8.59814
-1.73429 7.95505
-1.68051 7.32064
-1.62339 6.69656
-1.5628 6.08452
-1.49873 5.48642
-1.43162 4.90448
-1.36274 4.34151
-1.29414 3.80058
-1.22461 3.28149
-1.14944 2.78207
-1.06525 2.30373
-0.97062 1.84718
-0.860663 1.41871
-0.737627 1.03278
-0.587862 -0.81155
-0.703924 -1.14919
-0.812506 -1.53238
-0.901079 -1.95218
-0.972279 -2.40469
-1.0305 -2.88699
-1.07923 -3.39511
-1.1208 -3.92706
-1.15478 -4.48418
-1.18178 -5.06142
-1.20252 -5.65321
-1.21915 -6.26234
-1.23065 -6.88797