<?xml version="1.0"?>
<VTKFile type="UnstructuredGrid">
  <UnstructuredGrid>
  <Piece NumberOfPoints="31839"  NumberOfCells="15790">
    <Points>
      <DataArray type="Float64" NumberOfComponents="3" format="ascii">
499.999 29.5031 0
499.955 -0.497027 0
0 0 0
0 30 0
500.043 59.503 0
0 60 0
110 29.9656 0
100.005 39.9713 0
90 29.977 0
99.9949 19.9713 0
210 29.8851 0
200.009 39.8949 0
190 29.9048 0
199.991 19.8949 0
310 29.7706 0
300.012 39.7833 0
290 29.7961 0
299.988 19.7833 0
409.999 29.6341 0
400.013 39.6486 0
390 29.663 0
399.986 19.6485 0
499.994 26.1123 0
499.989 22.7215 0
499.986 20.4068 0
499.983 18.0921 0
499.979 15.5791 0
499.975 13.0661 0
499.97 9.67535 0
499.965 6.28456 0
499.96 2.89377 0
496.565 -0.491992 0
493.174 -0.486996 0
489.783 -0.482012 0
486.392 -0.477033 0
482.968 -0.472009 0
479.544 -0.466988 0
475.983 -0.461768 0
472.421 -0.456551 0
468.997 -0.451536 0
465.572 -0.446525 0
462.148 -0.441517 0
458.723 -0.436512 0
455.298 -0.431513 0
451.874 -0.426518 0
448.449 -0.421529 0
445.025 -0.416545 0
441.6 -0.411568 0
438.175 -0.406598 0
434.751 -0.401636 0
431.326 -0.396681 0
427.902 -0.391735 0
424.477 -0.386796 0
421.052 -0.381865 0
417.628 -0.37694 0
414.203 -0.372019 0
410.779 -0.367101 0
407.354 -0.362184 0
403.93 -0.357268 0
400.505 -0.352354 0
397.081 -0.347449 0
393.656 -0.342557 0
390.232 -0.337686 0
386.807 -0.332839 0
383.383 -0.328018 0
379.958 -0.323222 0
376.534 -0.318449 0
373.109 -0.313698 0
369.685 -0.308967 0
366.26 -0.304255 0
362.836 -0.299561 0
359.411 -0.294886 0
355.987 -0.29023 0
352.562 -0.285593 0
349.138 -0.280975 0
345.713 -0.276377 0
342.289 -0.271799 0
338.864 -0.267242 0
335.44 -0.262707 0
332.015 -0.258194 0
328.591 -0.253703 0
325.166 -0.249234 0
321.742 -0.244787 0
318.318 -0.240363 0
314.893 -0.235958 0
311.469 -0.231572 0
308.044 -0.227202 0
304.62 -0.222846 0
301.195 -0.218505 0
297.771 -0.214183 0
294.347 -0.209885 0
290.922 -0.205621 0
287.498 -0.201394 0
284.073 -0.197209 0
280.649 -0.193063 0
277.225 -0.188957 0
273.8 -0.184888 0
270.376 -0.180853 0
266.952 -0.176852 0
263.527 -0.172884 0
260.103 -0.168949 0
256.678 -0.165047 0
253.254 -0.161177 0
249.83 -0.157341 0
246.405 -0.153539 0
242.981 -0.149771 0
239.557 -0.146038 0
236.132 -0.142341 0
232.708 -0.138679 0
229.284 -0.135054 0
225.859 -0.131466 0
222.435 -0.127915 0
219.011 -0.124401 0
215.586 -0.120922 0
212.162 -0.117478 0
208.738 -0.114065 0
205.313 -0.110682 0
201.889 -0.107325 0
198.465 -0.103999 0
195.041 -0.100708 0
191.616 -0.0974604 0
188.192 -0.0942653 0
184.768 -0.0911244 0
181.344 -0.0880405 0
177.919 -0.0850109 0
174.495 -0.0820338 0
171.071 -0.0791068 0
167.647 -0.0762279 0
164.222 -0.0733966 0
160.798 -0.070612 0
157.374 -0.0678743 0
153.95 -0.0651835 0
150.525 -0.0625403 0
147.101 -0.0599448 0
143.677 -0.0573977 0
140.253 -0.0548996 0
136.828 -0.0524508 0
133.404 -0.0500521 0
129.98 -0.047704 0
126.556 -0.0454071 0
123.132 -0.0431618 0
119.707 -0.0409684 0
116.283 -0.0388263 0
112.859 -0.0367344 0
109.435 -0.0346899 0
106.011 -0.0326887 0
102.586 -0.0307288 0
99.1622 -0.0288094 0
95.7381 -0.0269366 0
92.3139 -0.0251193 0
88.8898 -0.0233642 0
85.4656 -0.0216804 0
82.0415 -0.0200668 0
78.6174 -0.0185247 0
75.1933 -0.0170502 0
71.7691 -0.015641 0
68.345 -0.0142951 0
64.9209 -0.0130107 0
61.4968 -0.0117878 0
58.0726 -0.0106255 0
54.6485 -0.00952455 0
51.2244 -0.00848492 0
47.8003 -0.00750722 0
44.3762 -0.00659185 0
40.9521 -0.00573931 0
37.528 -0.00495006 0
34.1039 -0.00422441 0
30.6798 -0.00356271 0
27.2557 -0.00296492 0
23.8316 -0.00243092 0
20.4075 -0.0019598 0
16.9841 -0.00154995 0
13.5607 -0.00119821 0
10.1705 -0.000899227 0
6.78027 -0.000636003 0
3.39008 -0.00038123 0
0 3.39077 0
0 6.78155 0
0 9.09626 0
0 11.411 0
0 13.9239 0
0 16.4369 0
0 19.8277 0
0 23.2185 0
0 26.6092 0
500.004 32.8939 0
500.009 36.2846 0
500.012 38.5993 0
500.016 40.914 0
500.019 43.427 0
500.023 45.9399 0
500.028 49.3307 0
500.033 52.7214 0
500.038 56.1122 0
496.652 59.508 0
493.261 59.513 0
489.871 59.518 0
486.48 59.5229 0
483.056 59.528 0
479.632 59.533 0
476.07 59.5382 0
472.509 59.5434 0
469.084 59.5484 0
465.659 59.5535 0
462.235 59.5585 0
458.81 59.5635 0
455.385 59.5685 0
451.961 59.5735 0
448.536 59.5785 0
445.111 59.5834 0
441.687 59.5884 0
438.262 59.5934 0
434.837 59.5983 0
431.412 59.6033 0
427.988 59.6083 0
424.563 59.6132 0
421.138 59.6181 0
417.714 59.6231 0
414.289 59.628 0
410.864 59.6329 0
407.439 59.6378 0
404.015 59.6428 0
400.59 59.6477 0
397.165 59.6526 0
393.74 59.6575 0
390.316 59.6623 0
386.891 59.6672 0
383.466 59.672 0
380.041 59.6768 0
376.616 59.6816 0
373.192 59.6863 0
369.767 59.691 0
366.342 59.6957 0
362.917 59.7004 0
359.492 59.7051 0
356.068 59.7098 0
352.643 59.7144 0
349.218 59.719 0
345.793 59.7236 0
342.368 59.7282 0
338.943 59.7328 0
335.519 59.7373 0
332.094 59.7418 0
328.669 59.7463 0
325.244 59.7508 0
321.819 59.7552 0
318.394 59.7597 0
314.97 59.7641 0
311.545 59.7685 0
308.12 59.7728 0
304.695 59.7772 0
301.27 59.7815 0
297.845 59.7859 0
294.42 59.7902 0
290.995 59.7944 0
287.57 59.7987 0
284.146 59.8028 0
280.721 59.807 0
277.296 59.8111 0
273.871 59.8151 0
270.446 59.8192 0
267.021 59.8232 0
263.596 59.8272 0
260.171 59.8311 0
256.746 59.835 0
253.321 59.8389 0
249.896 59.8427 0
246.471 59.8465 0
243.046 59.8503 0
239.621 59.854 0
236.196 59.8577 0
232.771 59.8614 0
229.346 59.865 0
225.921 59.8686 0
222.496 59.8721 0
219.071 59.8757 0
215.647 59.8791 0
212.222 59.8826 0
208.797 59.886 0
205.372 59.8894 0
201.947 59.8928 0
198.522 59.8961 0
195.097 59.8994 0
191.671 59.9026 0
188.246 59.9058 0
184.821 59.909 0
181.396 59.912 0
177.971 59.9151 0
174.546 59.918 0
171.121 59.921 0
167.696 59.9238 0
164.271 59.9267 0
160.846 59.9295 0
157.421 59.9322 0
153.996 59.9349 0
150.571 59.9375 0
147.146 59.9401 0
143.721 59.9427 0
140.296 59.9452 0
136.87 59.9476 0
133.445 59.95 0
130.02 59.9524 0
126.595 59.9547 0
123.17 59.9569 0
119.745 59.9591 0
116.32 59.9613 0
112.895 59.9634 0
109.47 59.9654 0
106.044 59.9674 0
102.619 59.9694 0
99.1942 59.9713 0
95.769 59.9732 0
92.3439 59.975 0
88.9187 59.9767 0
85.4935 59.9784 0
82.0683 59.98 0
78.6432 59.9816 0
75.218 59.9831 0
71.7928 59.9845 0
68.3676 59.9858 0
64.9424 59.9871 0
61.5172 59.9883 0
58.092 59.9895 0
54.6668 59.9906 0
51.2416 59.9916 0
47.8164 59.9926 0
44.3912 59.9935 0
40.966 59.9944 0
37.5408 59.9952 0
34.1156 59.9959 0
30.6903 59.9966 0
27.2651 59.9972 0
23.8399 59.9977 0
20.4146 59.9982 0
16.9901 59.9986 0
13.5655 59.9989 0
10.1742 59.9992 0
6.78282 59.9994 0
3.39146 59.9997 0
0 56.6092 0
0 53.2185 0
0 50.9037 0
0 48.589 0
0 46.0761 0
0 43.5631 0
0 40.1723 0
0 36.7815 0
0 33.3908 0
109.919 31.2449 0
109.674 32.5034 0
109.271 33.7202 0
108.715 34.8754 0
108.016 35.95 0
107.185 36.9263 0
106.236 37.7884 0
105.185 38.522 0
104.048 39.115 0
102.845 39.5578 0
101.44 39.867 0
98.7257 39.8898 0
97.4672 39.6454 0
96.2503 39.242 0
95.095 38.6862 0
94.0204 37.9872 0
93.0441 37.1565 0
92.1821 36.2077 0
91.4486 35.1564 0
90.8557 34.0199 0
90.413 32.8169 0
90.1041 31.4118 0
90.1029 28.542 0
90.4106 27.1366 0
90.8522 25.933 0
91.4442 24.7959 0
92.1767 23.7437 0
93.0377 22.794 0
94.0131 21.9621 0
95.0869 21.2619 0
96.2414 20.7048 0
97.4577 20.3 0
98.7157 20.0542 0
101.43 20.0739 0
102.835 20.3814 0
104.038 20.8229 0
105.175 21.4147 0
106.228 22.1471 0
107.177 23.0081 0
108.009 23.9835 0
108.709 25.0573 0
109.266 26.2118 0
109.671 27.4282 0
109.917 28.6863 0
209.919 31.1645 0
209.675 32.423 0
209.272 33.64 0
208.717 34.7954 0
208.018 35.8703 0
207.188 36.847 0
206.239 37.7095 0
205.188 38.4435 0
204.052 39.037 0
202.849 39.4803 0
201.444 39.79 0
198.574 39.7929 0
197.168 39.4859 0
195.965 39.045 0
194.827 38.4537 0
193.775 37.7217 0
192.825 36.8611 0
191.993 35.8861 0
191.292 34.8126 0
190.735 33.6582 0
190.329 32.442 0
190.083 31.184 0
190.102 28.4697 0
190.409 27.0642 0
190.85 25.8605 0
191.442 24.7231 0
192.174 23.6706 0
193.035 22.7205 0
194.01 21.8883 0
195.083 21.1876 0
196.237 20.6301 0
197.454 20.2247 0
198.712 19.9784 0
201.426 19.997 0
202.831 20.3039 0
204.035 20.7449 0
205.172 21.3362 0
206.224 22.0682 0
207.174 22.9288 0
208.007 23.9038 0
208.707 24.9773 0
209.265 26.1317 0
209.67 27.3479 0
209.916 28.6059 0
309.919 31.05 0
309.676 32.3086 0
309.273 33.5257 0
308.718 34.6813 0
308.02 35.7564 0
307.19 36.7333 0
306.241 37.596 0
305.191 38.3304 0
304.054 38.9242 0
302.852 39.3679 0
301.447 39.678 0
298.577 39.6817 0
297.171 39.3751 0
295.967 38.9346 0
294.83 38.3436 0
293.777 37.6119 0
292.827 36.7516 0
291.994 35.7768 0
291.293 34.7035 0
290.736 33.5493 0
290.33 32.3332 0
290.083 31.0753 0
290.102 28.361 0
290.408 26.9554 0
290.849 25.7515 0
291.44 24.6139 0
292.172 23.5613 0
293.032 22.6109 0
294.007 21.7784 0
295.08 21.0774 0
296.234 20.5195 0
297.451 20.1139 0
298.708 19.8671 0
301.423 19.885 0
302.828 20.1915 0
304.032 20.6321 0
305.169 21.2231 0
306.222 21.9547 0
307.172 22.815 0
308.005 23.7899 0
308.706 24.8632 0
309.264 26.0173 0
309.669 27.2334 0
309.916 28.4914 0
409.898 31.0692 0
409.592 32.4749 0
409.151 33.6788 0
408.56 34.8165 0
407.829 35.8692 0
406.969 36.8198 0
405.994 37.6525 0
404.921 38.3536 0
403.767 38.9117 0
402.551 39.3176 0
401.293 39.5646 0
398.578 39.5472 0
397.173 39.2409 0
395.969 38.8005 0
394.831 38.2097 0
393.778 37.4782 0
392.828 36.6181 0
391.995 35.6434 0
391.294 34.5702 0
390.736 33.4161 0
390.33 32.2001 0
390.083 30.9422 0
390.101 28.2279 0
390.407 26.8223 0
390.848 25.6183 0
391.439 24.4806 0
392.17 23.4279 0
393.031 22.4773 0
394.005 21.6447 0
395.078 20.9435 0
396.233 20.3854 0
397.449 19.9795 0
398.706 19.7326 0
401.265 19.7289 0
402.524 19.9722 0
403.741 20.3746 0
404.896 20.9293 0
405.971 21.6274 0
406.948 22.4572 0
407.811 23.4053 0
408.546 24.4559 0
409.14 25.5919 0
409.584 26.7945 0
409.894 28.1993 0
496.608 29.508 0
493.218 29.513 0
489.827 29.518 0
486.436 29.523 0
482.977 29.528 0
479.519 29.5331 0
476.061 29.5382 0
472.603 29.5433 0
469.145 29.5483 0
465.687 29.5534 0
462.225 29.5585 0
458.764 29.5635 0
455.302 29.5686 0
451.841 29.5736 0
448.379 29.5787 0
[...]
    <PointData>
      <DataArray type="Float64" NumberOfComponents="2" Name="Displacement" format="ascii">
-0.00087315 -0.496909
-0.044666 -0.497027
0 0
0 0
0.0429184 -0.497045
0 0
2.0673e-06 -0.0344136
0.00513677 -0.0287337
2.95629e-05 -0.0230377
-0.00511419 -0.0287428
-0.000101317 -0.114881
0.00919128 -0.105056
-3.23466e-05 -0.0952293
-0.00933443 -0.105073
-0.000303787 -0.229429
0.0119309 -0.216674
-0.000194209 -0.203933
-0.0124372 -0.216699
-0.000599647 -0.365891
0.0133601 -0.351424
-0.00044942 -0.336986
-0.0144187 -0.351458
-0.00577237 -0.496908
-0.0106941 -0.496924
-0.0140607 -0.496932
-0.0174307 -0.496943
-0.0210934 -0.496949
-0.02476 -0.496959
-0.0297132 -0.496968
-0.0346768 -0.496987
-0.0396557 -0.497004
-0.0446482 -0.491992
-0.0446239 -0.486996
-0.0446024 -0.482012
-0.0445798 -0.477033
-0.0445558 -0.472009
-0.0445294 -0.466988
-0.044499 -0.461768
-0.0444651 -0.456551
-0.0444288 -0.451536
-0.0443888 -0.446525
-0.0443446 -0.441517
-0.0442966 -0.436512
-0.0442442 -0.431513
-0.0441879 -0.426518
-0.0441273 -0.421529
-0.0440627 -0.416545
-0.0439939 -0.411568
-0.0439212 -0.406598
-0.0438448 -0.401636
-0.0437651 -0.396681
-0.0436824 -0.391735
-0.0435973 -0.386796
-0.0435105 -0.381865
-0.0434224 -0.37694
-0.0433335 -0.372019
-0.0432428 -0.367101
-0.043148 -0.362184
-0.0430472 -0.357268
-0.0429361 -0.352354
-0.0428132 -0.347449
-0.0426759 -0.342557
-0.0425277 -0.337686
-0.0423705 -0.332839
-0.0422086 -0.328018
-0.0420446 -0.323222
-0.0418797 -0.318449
-0.0417144 -0.313698
-0.0415483 -0.308967
-0.041381 -0.304255
-0.0412116 -0.299561
-0.0410396 -0.294886
-0.0408646 -0.29023
-0.0406862 -0.285593
-0.0405042 -0.280975
-0.0403182 -0.276377
-0.0401286 -0.271799
-0.0399349 -0.267242
-0.0397375 -0.262707
-0.0395364 -0.258194
-0.039332 -0.253703
-0.0391247 -0.249234
-0.0389149 -0.244787
-0.0387037 -0.240363
-0.0384911 -0.235958
-0.0382774 -0.231572
-0.0380612 -0.227202
-0.0378409 -0.222846
-0.0376127 -0.218505
-0.0373717 -0.214183
-0.0371175 -0.209885
-0.036849 -0.205621
-0.0365708 -0.201394
-0.0362863 -0.197209
-0.0359989 -0.193063
-0.0357111 -0.188957
-0.0354229 -0.184888
-0.0351349 -0.180853
-0.0348459 -0.176852
-0.0345556 -0.172884
-0.034263 -0.168949
-0.0339676 -0.165047
-0.0336689 -0.161177
-0.0333667 -0.157341
-0.0330608 -0.153539
-0.0327508 -0.149771
-0.032437 -0.146038
-0.0321192 -0.142341
-0.0317975 -0.138679
-0.031472 -0.135054
-0.031143 -0.131466
-0.0308111 -0.127915
-0.0304768 -0.124401
-0.0301412 -0.120922
-0.0298045 -0.117478
-0.029467 -0.114065
-0.0291269 -0.110682
-0.0287801 -0.107325
-0.0284235 -0.103999
-0.0280508 -0.100708
-0.0276647 -0.0974604
-0.0272657 -0.0942653
-0.0268597 -0.0911244
-0.0264493 -0.0880405
-0.026038 -0.0850109
-0.0256276 -0.0820338
-0.0252172 -0.0791068
-0.024807 -0.0762279
-0.0243956 -0.0733966
-0.0239825 -0.070612
-0.0235669 -0.0678743
-0.0231481 -0.0651835
-0.022726 -0.0625403
-0.0223 -0.0599448
-0.0218702 -0.0573977
-0.0214363 -0.0548996
-0.0209983 -0.0524508
-0.0205561 -0.0500521
-0.0201098 -0.047704
-0.0196596 -0.0454071
-0.0192058 -0.0431618
-0.0187491 -0.0409684
-0.0182902 -0.0388263
-0.0178308 -0.0367344
-0.0173707 -0.0346899
-0.01691 -0.0326887
-0.0164452 -0.0307288
-0.0159705 -0.0288094
-0.0154823 -0.0269366
-0.0149775 -0.0251193
-0.0144599 -0.0233642
-0.0139313 -0.0216804
-0.0133983 -0.0200668
-0.0128639 -0.0185247
-0.0123301 -0.0170502
-0.0117977 -0.015641
-0.0112654 -0.0142951
-0.0107331 -0.0130107
-0.0101991 -0.0117878
-0.00966307 -0.0106255
-0.00912419 -0.00952455
-0.00858203 -0.00848492
-0.00803645 -0.00750722
-0.00748711 -0.00659185
-0.0069342 -0.00573931
-0.00637759 -0.00495006
-0.00581757 -0.00422441
-0.00525432 -0.00356271
-0.00468812 -0.00296492
-0.00411976 -0.00243092
-0.00354934 -0.0019598
-0.00297876 -0.00154995
-0.00240726 -0.00119821
-0.00184392 -0.000899227
-0.00127836 -0.000636003
-0.000695457 -0.00038123
0 0
0 0
0 0
0 0
0 0
0 0
0 0
0 0
0 0
0.00404993 -0.496913
0.00896188 -0.496932
0.0123318 -0.496943
0.015697 -0.496959
0.019369 -0.496969
0.0230352 -0.496981
0.0280014 -0.496993
0.0329593 -0.497012
0.037942 -0.497025
0.0429437 -0.492026
0.0429519 -0.487029
0.0429551 -0.482042
0.0429558 -0.477061
0.0429546 -0.472035
0.0429507 -0.467013
0.0429436 -0.461791
0.042933 -0.456573
0.042919 -0.451558
0.0429012 -0.446546
0.0428794 -0.441537
0.0428537 -0.436533
0.0428237 -0.431533
0.0427898 -0.426538
0.0427517 -0.421548
0.0427098 -0.416564
0.0426639 -0.411587
0.0426145 -0.406617
0.0425616 -0.401653
0.0425059 -0.396697
0.0424476 -0.391748
0.0423872 -0.386806
0.0423254 -0.38187
0.042262 -0.376938
0.0421971 -0.372011
0.0421292 -0.367085
0.042056 -0.36216
0.041975 -0.357238
0.0418821 -0.352321
0.0417769 -0.347415
0.041658 -0.342527
0.0415293 -0.33766
0.0413932 -0.33282
0.0412535 -0.328005
0.0411124 -0.323214
0.0409704 -0.318445
0.0408279 -0.313696
0.0406839 -0.308967
0.0405379 -0.304255
0.0403891 -0.299561
0.040237 -0.294886
0.0400813 -0.290228
0.0399216 -0.28559
0.039758 -0.280971
0.0395902 -0.276371
0.0394185 -0.271792
0.0392427 -0.267234
0.0390633 -0.262698
0.0388803 -0.258182
0.0386941 -0.253689
0.0385052 -0.249217
0.038314 -0.244766
0.0381211 -0.240337
0.0379265 -0.235927
0.0377298 -0.231534
0.0375298 -0.227158
0.0373235 -0.222796
0.0371087 -0.218452
0.0368805 -0.214129
0.0366396 -0.209833
0.0363848 -0.205571
0.0361214 -0.201348
0.0358524 -0.197166
0.0355811 -0.193024
0.0353094 -0.188921
0.0350371 -0.184853
0.0347645 -0.180819
0.0344904 -0.176818
0.0342143 -0.172849
0.0339352 -0.168913
0.0336528 -0.16501
0.0333667 -0.161139
0.0330765 -0.157301
0.0327824 -0.153498
0.032484 -0.149729
0.0321816 -0.145994
0.031875 -0.142295
0.0315646 -0.138632
0.0312504 -0.135005
0.0309328 -0.131414
0.0306122 -0.12786
0.0302891 -0.124343
0.0299645 -0.12086
0.0296383 -0.117412
0.0293101 -0.113994
0.0289784 -0.110607
0.0286396 -0.107247
0.0282901 -0.103919
0.0279252 -0.100628
0.0275468 -0.0973813
0.0271557 -0.0941878
0.0267577 -0.0910488
0.0263563 -0.0879668
0.0259539 -0.0849385
0.0255521 -0.081962
0.0251501 -0.079035
0.0247477 -0.0761556
0.0243436 -0.0733235
0.0239373 -0.0705378
0.0235279 -0.0677988
0.0231151 -0.0651068
0.0226984 -0.0624621
0.0222776 -0.0598653
0.0218528 -0.0573168
0.0214235 -0.0548173
0.0209901 -0.0523672
0.0205522 -0.0499671
0.0201102 -0.0476175
0.0196641 -0.0453191
0.0192142 -0.0430721
0.0187616 -0.0408768
0.0183066 -0.0387325
0.0178506 -0.0366383
0.0173935 -0.0345911
0.0169356 -0.0325876
0.0164731 -0.0306257
0.0160002 -0.0287046
0.0155138 -0.0268308
0.0150106 -0.025013
0.0144946 -0.023258
0.0139677 -0.0215743
0.0134366 -0.019961
0.012904 -0.018419
0.0123718 -0.0169443
0.0118408 -0.0155346
0.0113097 -0.014188
0.010778 -0.0129028
0.0102444 -0.0116788
0.00970826 -0.0105155
0.00916895 -0.00941337
0.00862598 -0.00837264
0.00807922 -0.00739389
0.00752833 -0.00647759
0.00697352 -0.00562426
0.00641461 -0.00483445
0.00585195 -0.00410851
0.0052856 -0.0034469
0.00471597 -0.00284969
0.00414365 -0.00231695
0.00356891 -0.00184795
0.00299334 -0.0014415
0.00241643 -0.0010949
0.00184677 -0.000804127
0.00127455 -0.000554627
0.000687198 -0.000321218
0 0
0 0
0 0
0 0
0 0
0 0
0 0
0 0
0 0
0.000776455 -0.0343671
0.00153275 -0.0342276
0.00225224 -0.0339989
0.00292051 -0.0336834
0.00351977 -0.0332865
0.00404165 -0.0328157
0.00447235 -0.0322765
0.00480911 -0.0316808
0.00504471 -0.0310338
0.0051815 -0.0303512
0.00521753 -0.0295495
0.00497501 -0.0280022
0.0047354 -0.0272853
0.00443212 -0.0265894
0.00406931 -0.0259305
0.0036641 -0.0253169
0.00321771 -0.02476
0.00274614 -0.0242706
0.00224845 -0.0238531
0.0017403 -0.023519
0.00121974 -0.0232679
0.000623692 -0.0230967
-0.000566857 -0.0231011
-0.00116619 -0.0232758
-0.00169006 -0.0235285
-0.00220133 -0.0238638
-0.00270264 -0.024282
-0.00317715 -0.0247716
-0.00362738 -0.0253286
-0.00403542 -0.0259416
-0.00440142 -0.0266003
-0.00470707 -0.0272956
-0.00494978 -0.0280121
-0.00519814 -0.0295575
-0.00516493 -0.0303584
-0.00503064 -0.0310394
-0.00479704 -0.0316857
-0.00446192 -0.0322802
-0.00403277 -0.0328187
-0.00351218 -0.0332888
-0.00291422 -0.0336852
-0.00224668 -0.0340001
-0.00152787 -0.0342284
-0.000772009 -0.0343676
0.00117126 -0.1148
0.00241906 -0.114559
0.00361835 -0.114162
0.00474595 -0.113616
0.00577871 -0.112929
0.00670082 -0.112114
0.00749327 -0.111181
0.00814607 -0.110149
0.00864742 -0.109031
0.00899306 -0.107849
0.00919172 -0.106466
0.00899971 -0.103642
0.00862391 -0.10226
0.00814942 -0.101075
0.00754978 -0.0999567
0.00684365 -0.098922
0.00603817 -0.0979885
0.00515309 -0.097173
0.00419617 -0.0964858
0.00318848 -0.0959424
0.00213757 -0.0955466
0.00105732 -0.0953094
-0.00125747 -0.0953357
-0.00247004 -0.0956385
-0.00351673 -0.0960742
-0.00451766 -0.0966553
-0.00546595 -0.097377
-0.0063385 -0.0982233
-0.00712946 -0.0991842
-0.00781713 -0.100241
-0.00839602 -0.101378
-0.00884687 -0.102576
-0.00916438 -0.103813
-0.00934396 -0.106482
-0.0091541 -0.107864
-0.0088159 -0.109044
-0.00832171 -0.11016
-0.00767508 -0.11119
-0.0068884 -0.112121
-0.00597086 -0.112935
-0.00494205 -0.113621
-0.00381726 -0.114165
-0.00262 -0.11456
-0.00137339 -0.114801
0.00131145 -0.229323
0.00289871 -0.22901
0.00442849 -0.228494
0.00587488 -0.227785
0.00721089 -0.226893
0.0084144 -0.225834
0.00946391 -0.224623
0.0103432 -0.223283
0.0110385 -0.221832
0.0115394 -0.220298
0.0118633 -0.218505
0.0117471 -0.214842
0.0113165 -0.213049
0.0107392 -0.211514
0.00998735 -0.210063
0.00908009 -0.208722
0.00802856 -0.207512
0.00685433 -0.206456
0.00557178 -0.205567
0.004208 -0.204862
0.00277763 -0.204348
0.00130171 -0.204037
-0.00187297 -0.20407
-0.00352726 -0.204464
-0.00495007 -0.205029
-0.00630262 -0.205784
-0.00757044 -0.20672
-0.00872571 -0.207817
-0.00975615 -0.209063
-0.0106382 -0.210434
-0.0113623 -0.211908
-0.0119088 -0.213461
-0.0122716 -0.215067
-0.0123852 -0.218528
-0.0120764 -0.22032
-0.0115881 -0.221852
-0.0109048 -0.2233
-0.0100358 -0.224638
-0.00899588 -0.225846
-0.00780039 -0.226903
-0.0064716 -0.227793
-0.00503016 -0.2285
-0.00350347 -0.229013
-0.00191821 -0.229325
0.00142174 -0.365739
0.0034023 -0.365292
0.00509598 -0.364652
0.00669316 -0.363795
0.00816914 -0.362734
0.00949661 -0.361489
0.0106563 -0.360077
0.0116265 -0.358526
0.0123918 -0.356854
0.0129404 -0.355095
0.0132648 -0.353274
0.0131961 -0.349347
0.0127479 -0.347316
0.0121209 -0.345576
0.0112885 -0.343933
0.0102683 -0.342414
0.00907481 -0.341043
0.00773071 -0.339844
0.00625528 -0.338835
0.00467556 -0.338035
0.00301289 -0.337453
0.00129447 -0.337103
-0.00240858 -0.33714
-0.00433433 -0.337587
-0.00598698 -0.338228
-0.00755284 -0.339084
-0.00901096 -0.340145
-0.0103333 -0.341391
-0.011502 -0.342803
-0.0124938 -0.344357
-0.0132954 -0.346028
-0.013889 -0.347788
-0.014267 -0.349608
-0.0143427 -0.353307
-0.0140371 -0.355127
-0.0135059 -0.356883
-0.0127569 -0.358552
-0.0118026 -0.360101
-0.0106572 -0.361509
-0.00934185 -0.36275
-0.00787568 -0.363807
-0.00628569 -0.36466
-0.00459712 -0.365297
-0.00261991 -0.365742
-0.000853824 -0.491958
-0.000839523 -0.486993
-0.000827264 -0.48202
-0.000815184 -0.477043
-0.000803031 -0.471966
-0.000791029 -0.466888
-0.000779189 -0.461813
-0.000767477 -0.456741
-0.000755911 -0.451671
-0.000744467 -0.446604
-0.000733159 -0.441535
-0.000721985 -0.436471
-0.000710978 -0.431411
-0.000700125 -0.426357
-0.000689473 -0.421308
-0.000679012 -0.416264
-0.000668799 -0.411227
-0.000658834 -0.406197
-0.000649191 -0.401173
-0.000639895 -0.396158
-0.000631134 -0.391185
-0.000622916 -0.38622
-0.000616523 -0.381958
-0.000610865 -0.377705
-0.000607153 -0.374428
-0.000604019 -0.371161
-0.000601808 -0.368517
2.78102e-06 1.26587e-05
6.29212e-06 -6.82367e-05
9.82945e-06 -0.000235196
1.28144e-05 -0.000482521
1.53308e-05 -0.000812161
1.73027e-05 -0.00121602
1.8862e-05 -0.00169073
2.01085e-05 -0.00223447
2.11159e-05 -0.00284567
2.19795e-05 -0.00352341
2.27195e-05 -0.00426774
2.3403e-05 -0.00507741
2.4025e-05 -0.00595205
2.46301e-05 -0.00689116
2.52052e-05 -0.00789454
2.57851e-05 -0.00896178
2.63496e-05 -0.0100927
2.69372e-05 -0.0112871
2.75147e-05 -0.0125446
2.81362e-05 -0.0138651
2.87364e-05 -0.0152382
2.94035e-05 -0.0166717
2.99239e-05 -0.0179529
3.04074e-05 -0.0192734
3.06304e-05 -0.0203155
3.08254e-05 -0.0213727
3.05304e-05 -0.0222236
1.67768e-06 -0.0354911
1.5286e-06 -0.0365701
1.45263e-06 -0.0379219
1.27497e-06 -0.0392955
9.011e-07 -0.041149
2.79629e-07 -0.043042
-7.17429e-07 -0.0454043
-1.94746e-06 -0.0478235
-3.40991e-06 -0.0503398
-5.03659e-06 -0.0529131
-7.20721e-06 -0.0561269
-9.52953e-06 -0.0594237
-1.15326e-05 -0.0621896
-1.35766e-05 -0.0650101
-1.56735e-05 -0.0678851
-1.77565e-05 -0.070814
-1.98448e-05 -0.0737956
-2.18412e-05 -0.0768302
-2.38039e-05 -0.0798671
-2.55252e-05 -0.0829535
-2.70445e-05 -0.0855194
-2.82329e-05 -0.0881132
-2.91914e-05 -0.0900883
-2.96854e-05 -0.0920726
-3.06667e-05 -0.0936665
-0.000102332 -0.116662
-0.000103234 -0.11845
-0.000104314 -0.120675
-0.000105715 -0.12292
-0.000107917 -0.125916
-0.000110551 -0.128942
-0.000114193 -0.132673
-0.000118202 -0.136445
-0.000122579 -0.140321
-0.000127169 -0.144237
-0.000133042 -0.149066
-0.000139099 -0.153955
-0.000144186 -0.158009
-0.000149314 -0.162101
-0.000154475 -0.166232
-0.000159594 -0.170401
-0.000164667 -0.174605
-0.000169593 -0.178847
-0.000174313 -0.183055
-0.000178805 -0.187297
-0.000182222 -0.190798
-0.000185286 -0.194318
-0.000187891 -0.196987
-0.00018932 -0.199659
-0.000190972 -0.20181
-0.00030539 -0.231695
-0.000307 -0.233972
-0.000309087 -0.236803
-0.000311644 -0.239648
-0.000315717 -0.243431
-0.000320339 -0.247235
-0.000326536 -0.251899
-0.000333201 -0.256589
-0.00034035 -0.261381
-0.000347831 -0.266198
-0.000357275 -0.272105
-0.00036689 -0.278046
-0.000374897 -0.282945
-0.000382944 -0.287867
-0.000390953 -0.292812
-0.000398882 -0.297777
-0.000406736 -0.302763
-0.000414368 -0.307769
-0.000421645 -0.312713
-0.000428479 -0.317676
-0.000433674 -0.321757
-0.000438484 -0.325845
-0.000441692 -0.328938
-0.000444355 -0.33203
-0.000446657 -0.334519
-0.0250917 -0.353616
-0.00198585 -0.00169231
-0.0273659 -0.335602
-0.0164361 -0.370175
-0.00947847 -0.374305
-0.005453 -0.117603
-0.00741801 -0.233476
-0.016802 -0.10786
-0.0298412 -0.225463
-0.0218436 -0.215152
-0.000879093 -0.0202294
-0.00243242 -0.090081
-0.00344891 -0.196942
-0.00389476 -0.328833
-0.00343063 -0.335566
-0.002779 -0.36813
-0.00285347 -0.202642
-0.00197298 -0.0943007
-0.000866404 -0.0225653
-0.0263466 -0.205247
-0.0208577 -0.209489
-0.00864584 -0.266886
-0.0294513 -0.376406
-0.0257162 -0.235812
-0.0160425 -0.194359
-0.0345494 -0.489856
-0.000166879 -2.06533e-05
-0.0119382 -0.0382147
-0.0038236 -0.0388012
-0.00738911 -0.487019
-0.000986014 -0.000430053
-0.0382671 -0.350205
-0.0337 -0.211972
-0.025335 -0.100371
-0.0147448 -0.029691
-0.0120176 -0.0318617
-0.0115773 -0.0281575
-0.0114502 -0.0336121
-0.00998192 -0.0384728
-0.0203433 -0.102833
-0.0269815 -0.212358
-0.0217268 -0.237062
-0.0301548 -0.351367
-0.0233057 -0.207315
-0.0286544 -0.355215
-0.00161248 -0.0365383
-0.00383838 -0.119057
-0.00520598 -0.23528
-0.00577833 -0.231645
-0.00245083 -0.233289
-0.00404444 -0.230805
-0.00244646 -0.231015
-0.00425659 -0.116345
-0.00172608 -0.11778
-0.00297944 -0.115833
-0.0017231 -0.115997
-0.00204609 -0.035563
-0.000645823 -0.0361208
-0.0014087 -0.0349475
-0.000645002 -0.0350443
-0.00017135 -8.78217e-05
-5.69449e-05 -2.91754e-05
-5.93408e-05 1.73165e-05
-2.22154e-05 1.9575e-05
-0.010189 -0.490152
-0.00876413 -0.493891
-0.00384021 -0.488928
-0.00385073 -0.493889
-0.0376684 -0.486421
-0.0414808 -0.488747
-0.0365051 -0.493746
-0.0414916 -0.493753
-0.000592776 -0.000219342
-0.00027105 -9.12486e-05
-0.000917842 -0.000442846
-0.000336 -0.000157965
-0.0122817 -0.265308
-0.00638359 -0.0661979
-0.00701046 -0.0614536
-0.00375007 -0.0593933
-0.00672727 -0.0572405
-0.0148264 -0.261621
-0.0204799 -0.394441
-0.0105942 -0.257421
-0.021363 -0.181323
-0.0179751 -0.182222
-0.0185341 -0.178871
-0.0199964 -0.174559
-0.00151116 -0.000857429
-0.0216532 -0.410303
-0.0188327 -0.399773
-0.0056198 -0.0525113
-0.00624329 -0.071871
-0.00905874 -0.170272
-0.0171737 -0.186504
-0.0200205 -0.187985
-0.023126 -0.190667
-0.0163468 -0.189815
-0.0202605 -0.194104
-0.00577682 -0.0171085
-0.0129364 -0.0853489
-0.00296688 -0.0540018
-0.00304649 -0.0572436
-0.00321252 -0.0614589
-0.00327718 -0.0642647
-0.00309083 -0.0669339
-0.00314866 -0.0698445
-0.00453407 -0.146493
-0.00469906 -0.168237
-0.00478045 -0.259333
-0.00481183 -0.26414
-0.00417618 -0.268945
-0.00420885 -0.274867
-0.00790762 -0.275741
-0.00407312 -0.278918
-0.00409807 -0.283821
-0.00620875 -0.295982
-0.006177 -0.291024
-0.00759939 -0.286493
-0.0112856 -0.28246
-0.0116198 -0.278018
-0.0117253 -0.273972
-0.0116827 -0.270117
-0.00465432 -0.164088
-0.00458592 -0.159799
-0.00453925 -0.155728
-0.00459424 -0.15135
-0.0111553 -0.299206
-0.013411 -0.289656
-0.0151251 -0.280683
-0.0153857 -0.272386
-0.00909025 -0.161789
-0.00898799 -0.153127
-0.00875935 -0.144741
-0.00393845 -0.0106872
-0.0221791 -0.474159
-0.0221911 -0.310611
-0.0171376 -0.297578
-0.0173912 -0.292225
-0.018773 -0.287696
-0.0191277 -0.282972
-0.0194296 -0.27853
-0.0193685 -0.273942
-0.0192961 -0.270088
-0.0178728 -0.264841
-0.0136343 -0.168617
-0.0135143 -0.163851
-0.0133606 -0.159566
-0.0132997 -0.155218
-0.0132618 -0.150848
-0.0132451 -0.146316
-0.0170592 -0.136866
-0.00933221 -0.0707568
-0.00931133 -0.0678998
-0.00939264 -0.0652202
-0.00939245 -0.0626979
-0.00984598 -0.0606245
-0.00963686 -0.058255
-0.00884051 -0.0561171
-0.00843038 -0.0536935
-0.00569354 -0.0155375
-0.00551875 -0.0140745
-0.00530297 -0.0127283
-0.00507742 -0.0114747
-0.00484667 -0.0102924
-0.0227303 -0.462554
-0.0224534 -0.467898
-0.0228921 -0.452225
-0.0227324 -0.457347
-0.0233001 -0.442317
-0.0229432 -0.447362
-0.0235508 -0.438114
-0.0012493 -0.000825663
-0.00150238 -0.0012092
-0.004231 -0.00733713
-0.00440991 -0.00816849
-0.00460857 -0.00921721
-0.0152506 -0.130287
-0.0163528 -0.133814
-0.0207301 -0.389941
-0.0209063 -0.25568
-0.0161352 -0.256957
-0.0269025 -0.472021
-0.0271748 -0.460554
-0.0272231 -0.450485
-0.0275202 -0.44142
-0.0251168 -0.432848
-0.0230762 -0.398869
-0.0250136 -0.388354
-0.0257232 -0.31505
-0.0243563 -0.305519
-0.0225381 -0.295607
-0.0231043 -0.285533
-0.0233603 -0.276223
-0.0218326 -0.266389
-0.0179574 -0.166372
-0.0176855 -0.157264
-0.0175148 -0.148387
-0.0188664 -0.140772
-0.0195249 -0.134629
-0.0179518 -0.127844
-0.0151674 -0.0877075
-0.0141505 -0.0821844
-0.0124215 -0.069764
-0.0122964 -0.0643804
-0.0119945 -0.0594864
-0.0112785 -0.0546956
-0.00716008 -0.0182615
-0.00680446 -0.0150301
-0.00628836 -0.0123069
-0.00571717 -0.00996976
-0.00520789 -0.00805367
-0.00422848 -0.00638348
-0.0168979 -0.475236
-0.0180168 -0.46469
-0.0184567 -0.454223
-0.018978 -0.444055
-0.0221744 -0.422441
-0.0209056 -0.433744
-0.0165025 -0.390841
-0.00101117 -0.000811851
-0.00162649 -0.00168624
-0.00244829 -0.00292383
-0.00315461 -0.00459373
-0.00351964 -0.00648444
-0.00361598 -0.00846788
-0.00427689 -0.0132056
-0.00446742 -0.0161115
-0.00941163 -0.0454604
-0.010336 -0.0498603
-0.00801394 -0.0511132
-0.0093804 -0.07376
-0.0126365 -0.0760289
-0.0115621 -0.0825958
-0.0127974 -0.132506
-0.0156447 -0.139948
-0.0129652 -0.142305
-0.0135282 -0.172812
-0.0166591 -0.175446
-0.0143468 -0.184036
-0.0163033 -0.302599
-0.0201448 -0.306048
-0.0113948 -0.0439873
-0.00689278 -0.0440388
-0.0166362 -0.316349
-0.021473 -0.315584
-0.0210297 -0.384759
-0.0166634 -0.251499
-0.00613628 -0.254673
-0.0213376 -0.47936
-0.00100459 -0.000510333
-0.0240828 -0.483406
-0.0286987 -0.483744
-0.0318069 -0.480314
-0.0312916 -0.475144
-0.0315625 -0.468884
-0.0315126 -0.463551
-0.0315102 -0.458345
-0.0314813 -0.453245
-0.0315273 -0.448384
-0.0314465 -0.443562
-0.0316925 -0.43936
-0.0309625 -0.434353
-0.0283069 -0.429986
-0.0275819 -0.425066
-0.027277 -0.419031
-0.0275011 -0.413824
-0.027267 -0.407724
-0.027511 -0.40236
-0.0291511 -0.397027
-0.0294552 -0.391829
-0.0297439 -0.386646
-0.0296991 -0.381488
-0.0294387 -0.322296
-0.0293205 -0.317107
-0.0300065 -0.312131
-0.0298371 -0.307127
-0.0277582 -0.302573
-0.027206 -0.298025
-0.0274125 -0.292674
-0.0273688 -0.287906
-0.0276864 -0.283185
-0.0275949 -0.278516
-0.0274969 -0.27393
-0.0271299 -0.269178