<?xml version="1.0"?>
<VTKFile type="UnstructuredGrid">
  <UnstructuredGrid>
  <Piece NumberOfPoints="31839"  NumberOfCells="15790">
    <Points>
      <DataArray type="Float64" NumberOfComponents="3" format="ascii">
499.176 4.20616 0
496.899 -25.7143 0
0 0 0
0 30 0
501.454 34.1133 0
0 60 0
109.979 28.2219 0
100.25 38.5115 0
89.9899 28.81 0
99.719 18.5192 0
209.887 24.0526 0
200.381 34.5501 0
189.916 25.0713 0
199.421 14.5728 0
309.703 18.1076 0
300.36 28.7498 0
289.751 19.4312 0
299.094 8.78849 0
409.442 11.0176 0
400.195 21.7436 0
389.504 12.5197 0
398.751 1.7935 0
498.921 0.825027 0
498.665 -2.55699 0
498.49 -4.86554 0
498.315 -7.17425 0
498.125 -9.68038 0
497.934 -12.1867 0
497.676 -15.5683 0
497.418 -18.9503 0
497.159 -22.3322 0
493.519 -25.4528 0
490.139 -25.1932 0
486.759 -24.9341 0
483.379 -24.6754 0
479.966 -24.4143 0
476.553 -24.1533 0
473.003 -23.882 0
469.454 -23.6108 0
466.04 -23.3502 0
462.628 -23.0897 0
459.215 -22.8295 0
455.802 -22.5695 0
452.39 -22.3097 0
448.978 -22.0502 0
445.566 -21.791 0
442.154 -21.5322 0
438.743 -21.2737 0
435.332 -21.0155 0
431.92 -20.7578 0
428.509 -20.5005 0
425.099 -20.2437 0
421.688 -19.9872 0
418.277 -19.7312 0
414.866 -19.4754 0
411.456 -19.2199 0
408.045 -18.9646 0
404.635 -18.7093 0
401.224 -18.4541 0
397.815 -18.1991 0
394.406 -17.9445 0
390.998 -17.6908 0
387.59 -17.4382 0
384.183 -17.1869 0
380.775 -16.937 0
377.368 -16.6884 0
373.961 -16.4409 0
370.554 -16.1947 0
367.146 -15.9494 0
363.739 -15.7052 0
360.331 -15.4619 0
356.924 -15.2196 0
353.517 -14.9783 0
350.11 -14.7379 0
346.703 -14.4986 0
343.296 -14.2604 0
339.89 -14.0232 0
336.483 -13.7872 0
333.077 -13.5523 0
329.67 -13.3185 0
326.264 -13.0859 0
322.858 -12.8545 0
319.452 -12.6242 0
316.046 -12.395 0
312.64 -12.167 0
309.233 -11.9398 0
305.827 -11.7136 0
302.422 -11.488 0
299.016 -11.2634 0
295.611 -11.0397 0
292.207 -10.8173 0
288.803 -10.5968 0
285.4 -10.3782 0
281.997 -10.1619 0
278.594 -9.94757 0
275.191 -9.73533 0
271.788 -9.525 0
268.384 -9.31647 0
264.981 -9.10969 0
261.577 -8.90461 0
258.174 -8.70125 0
254.77 -8.49958 0
251.367 -8.29964 0
247.964 -8.10145 0
244.561 -7.90502 0
241.158 -7.71039 0
237.755 -7.51759 0
234.352 -7.32663 0
230.949 -7.13755 0
227.546 -6.95037 0
224.144 -6.76511 0
220.741 -6.58177 0
217.339 -6.40035 0
213.936 -6.2208 0
210.534 -6.04302 0
207.131 -5.86687 0
203.729 -5.69226 0
200.327 -5.51906 0
196.925 -5.34743 0
193.524 -5.17773 0
190.123 -5.0103 0
186.723 -4.84564 0
183.324 -4.68381 0
179.924 -4.52493 0
176.524 -4.36888 0
173.124 -4.21553 0
169.724 -4.06477 0
166.324 -3.91649 0
162.924 -3.77067 0
159.524 -3.62725 0
156.124 -3.48628 0
152.724 -3.34772 0
149.324 -3.21163 0
145.924 -3.07801 0
142.524 -2.9469 0
139.124 -2.81832 0
135.725 -2.6923 0
132.325 -2.56887 0
128.926 -2.44806 0
125.527 -2.32989 0
122.128 -2.21439 0
118.729 -2.10159 0
115.33 -1.99143 0
111.931 -1.88387 0
108.532 -1.77876 0
105.132 -1.67589 0
101.734 -1.57516 0
98.335 -1.47652 0
94.9371 -1.38032 0
91.54 -1.28699 0
88.1434 -1.1969 0
84.7474 -1.11051 0
81.3515 -1.02774 0
77.9555 -0.948659 0
74.5594 -0.873052 0
71.1632 -0.800792 0
67.7669 -0.731784 0
64.3705 -0.665932 0
60.9742 -0.60323 0
57.5779 -0.543648 0
54.1817 -0.487213 0
50.7856 -0.433928 0
47.3896 -0.383827 0
43.9938 -0.336928 0
40.5982 -0.293259 0
37.2026 -0.252842 0
33.8073 -0.215694 0
30.412 -0.181833 0
27.0169 -0.151258 0
23.6219 -0.123964 0
20.2269 -0.0999038 0
16.8326 -0.0789978 0
13.4383 -0.0610814 0
10.0768 -0.0458803 0
6.71533 -0.0325132 0
3.35472 -0.019556 0
0 3.39077 0
0 6.78155 0
0 9.09626 0
0 11.411 0
0 13.9239 0
0 16.4369 0
0 19.8277 0
0 23.2185 0
0 26.6092 0
499.432 7.58711 0
499.688 10.9673 0
499.863 13.2749 0
500.038 15.5822 0
500.229 18.0875 0
500.419 20.5927 0
500.678 23.9731 0
500.935 27.3532 0
501.195 30.7334 0
498.074 34.3746 0
494.693 34.6346 0
491.312 34.894 0
487.931 35.1531 0
484.517 35.4145 0
481.102 35.6757 0
477.55 35.9473 0
473.998 36.2187 0
470.582 36.4796 0
467.166 36.7403 0
463.75 37.0008 0
460.334 37.2612 0
456.917 37.5213 0
453.5 37.7811 0
450.083 38.0407 0
446.666 38.3 0
443.248 38.559 0
439.831 38.8176 0
436.413 39.0759 0
432.994 39.3338 0
429.576 39.5913 0
426.158 39.8484 0
422.739 40.1053 0
419.32 40.3618 0
415.902 40.6182 0
412.483 40.8745 0
409.064 41.1308 0
405.644 41.3869 0
402.224 41.6428 0
398.803 41.8982 0
395.381 42.1528 0
391.959 42.4063 0
388.536 42.6584 0
385.113 42.9092 0
381.69 43.1588 0
378.266 43.4072 0
374.843 43.6545 0
371.419 43.9008 0
367.996 44.1462 0
364.572 44.3907 0
361.147 44.6342 0
357.723 44.8768 0
354.298 45.1184 0
350.873 45.3589 0
347.448 45.5985 0
344.022 45.837 0
340.596 46.0744 0
337.17 46.3108 0
333.744 46.546 0
330.317 46.78 0
326.89 47.013 0
323.463 47.2448 0
320.036 47.4755 0
316.609 47.7052 0
313.181 47.934 0
309.753 48.1619 0
306.325 48.3891 0
302.897 48.6153 0
299.467 48.8406 0
296.037 49.0645 0
292.606 49.2866 0
289.175 49.5068 0
285.743 49.7248 0
282.31 49.9408 0
278.878 50.1547 0
275.445 50.3668 0
272.013 50.5771 0
268.58 50.7856 0
265.147 50.9925 0
261.714 51.1976 0
258.28 51.4011 0
254.846 51.6028 0
251.412 51.8029 0
247.978 52.0011 0
244.543 52.1976 0
241.108 52.3922 0
237.673 52.585 0
234.237 52.7759 0
230.801 52.965 0
227.365 53.1521 0
223.928 53.3373 0
220.491 53.5207 0
217.054 53.7021 0
213.617 53.8818 0
210.18 54.0599 0
206.742 54.2364 0
203.304 54.4114 0
199.866 54.5848 0
196.426 54.7564 0
192.986 54.9256 0
189.545 55.0921 0
186.104 55.2558 0
182.662 55.4166 0
179.22 55.5745 0
175.778 55.7298 0
172.335 55.8824 0
168.893 56.0325 0
165.45 56.1802 0
162.007 56.3254 0
158.564 56.4682 0
155.121 56.6085 0
151.677 56.7464 0
148.234 56.8817 0
144.789 57.0145 0
141.345 57.1448 0
137.9 57.2725 0
134.455 57.3976 0
131.009 57.52 0
127.563 57.6398 0
124.117 57.7569 0
120.671 57.8713 0
117.225 57.983 0
113.778 58.092 0
110.331 58.1986 0
106.884 58.3029 0
103.437 58.4051 0
99.9895 58.5051 0
96.5411 58.6026 0
93.0917 58.6973 0
89.6416 58.7887 0
86.1908 58.8764 0
82.7397 58.9605 0
79.2885 59.0409 0
75.8372 59.1178 0
72.3858 59.1912 0
68.9344 59.2614 0
65.4829 59.3284 0
62.0313 59.3921 0
58.5794 59.4527 0
55.1274 59.5101 0
51.6751 59.5643 0
48.2226 59.6152 0
44.7699 59.6629 0
41.3169 59.7073 0
37.8636 59.7484 0
34.4102 59.7862 0
30.9565 59.8206 0
27.5027 59.8517 0
24.0486 59.8794 0
20.5945 59.9038 0
17.141 59.925 0
13.6873 59.943 0
10.2673 59.9582 0
6.84709 59.9712 0
3.42608 59.9833 0
0 56.6092 0
0 53.2185 0
0 50.9037 0
0 48.589 0
0 46.0761 0
0 43.5631 0
0 40.1723 0
0 36.7815 0
0 33.3908 0
109.937 29.5029 0
109.732 30.7678 0
109.365 31.9955 0
108.843 33.1661 0
108.175 34.2603 0
107.371 35.2601 0
106.445 36.1492 0
105.411 36.9128 0
104.287 37.5385 0
103.091 38.0159 0
101.688 38.3657 0
98.9628 38.4673 0
97.6927 38.2594 0
96.4609 37.8916 0
95.2878 37.3695 0
94.1931 36.702 0
93.1945 35.8999 0
92.3089 34.9763 0
91.5505 33.9465 0
90.932 32.8273 0
90.4631 31.6374 0
90.1241 30.2415 0
90.0624 27.3723 0
90.3396 25.9584 0
90.7544 24.7425 0
91.3201 23.5887 0
92.0268 22.5157 0
92.8634 21.5415 0
93.8155 20.6818 0
94.8681 19.9508 0
96.0036 19.3607 0
97.2037 18.9209 0
98.4489 18.6389 0
101.149 18.5807 0
102.555 18.8476 0
103.765 19.2545 0
104.913 19.8134 0
105.982 20.5154 0
106.953 21.3488 0
107.811 22.2999 0
108.541 23.3531 0
109.132 24.4912 0
109.573 25.6953 0
109.857 26.9457 0
209.871 25.3343 0
209.691 26.6035 0
209.349 27.839 0
208.852 29.0206 0
208.207 30.1291 0
207.425 31.1461 0
206.518 32.055 0
205.501 32.8407 0
204.392 33.4905 0
203.208 33.9935 0
201.815 34.3734 0
198.938 34.5202 0
197.515 34.2842 0
196.289 33.9041 0
195.123 33.3705 0
194.036 32.6921 0
193.046 31.88 0
192.169 30.9475 0
191.421 29.9101 0
190.813 28.7846 0
190.355 27.5898 0
190.054 26.3452 0
189.955 23.6323 0
190.201 22.2128 0
190.588 20.9882 0
191.128 19.8225 0
191.811 18.7345 0
192.626 17.7425 0
193.559 16.8624 0
194.597 16.1089 0
195.72 15.4943 0
196.912 15.0288 0
198.152 14.72 0
200.853 14.6034 0
202.266 14.8399 0
203.486 15.2205 0
204.647 15.7545 0
205.731 16.4333 0
206.72 17.2456 0
207.597 18.1781 0
208.349 19.2154 0
208.964 20.3405 0
209.429 21.535 0
209.739 22.7791 0
309.705 19.3896 0
309.543 20.6615 0
309.219 21.9022 0
308.739 23.0915 0
308.11 24.2098 0
307.343 25.2387 0
306.45 26.1613 0
305.446 26.9625 0
304.348 27.6292 0
303.173 28.1502 0
301.788 28.5512 0
298.918 28.7418 0
297.493 28.5274 0
296.263 28.166 0
295.089 27.6502 0
293.993 26.9883 0
292.991 26.1914 0
292.1 25.2723 0
291.335 24.2463 0
290.709 23.1302 0
290.232 21.9426 0
289.911 20.7028 0
289.767 17.9919 0
289.989 16.5688 0
290.356 15.3385 0
290.877 14.1646 0
291.543 13.0664 0
292.342 12.062 0
293.263 11.1677 0
294.289 10.3984 0
295.404 9.76666 0
296.589 9.2829 0
297.826 8.95505 0
300.529 8.79701 0
301.947 9.01186 0
303.173 9.37371 0
304.343 9.88986 0
305.437 10.552 0
306.439 11.3491 0
307.33 12.2681 0
308.098 13.2939 0
308.728 14.4097 0
309.21 15.597 0
309.537 16.8364 0
409.444 12.4566 0
409.24 13.8814 0
408.887 15.1147 0
408.379 16.2931 0
407.725 17.3972 0
406.935 18.4087 0
406.022 19.3112 0
405.001 20.0896 0
403.889 20.7315 0
402.704 21.2261 0
401.466 21.5653 0
398.756 21.7483 0
397.331 21.5465 0
396.098 21.196 0
394.921 20.6906 0
393.819 20.0385 0
392.811 19.2504 0
391.912 18.3393 0
391.137 17.3203 0
390.5 16.2099 0
390.011 15.0266 0
389.677 13.7897 0
389.506 11.0803 0
389.713 9.6554 0
390.068 8.42185 0
390.578 7.24339 0
391.233 6.13924 0
392.023 5.12767 0
392.936 4.22519 0
393.956 3.44669 0
395.066 2.80496 0
396.248 2.31051 0
397.483 1.97153 0
400.031 1.77948 0
401.302 1.92955 0
402.543 2.24142 0
403.733 2.70975 0
404.854 3.32708 0
405.887 4.083 0
406.814 4.96535 0
407.622 5.95938 0
408.295 7.04887 0
408.824 8.21586 0
409.234 9.59427 0
495.796 4.46361 0
492.416 4.72179 0
489.035 4.98037 0
485.655 5.23913 0
482.206 5.50313 0
478.758 5.76712 0
475.311 6.03098 0
471.863 6.29473 0
468.416 6.55833 0
464.968 6.82177 0
461.517 7.08528 0
458.066 7.34857 0
454.614 7.61161 0
451.163 7.8744 0
447.712 8.13689 0
444.261 8.39908 0
440.809 8.66094 0
437.358 8.92245 0
433.907 9.18358 0
430.455 9.44432 0
427.028 9.70283 0
423.6 9.96088 0
420.651 10.1825 0
[...]
    <PointData>
      <DataArray type="Float64" NumberOfComponents="2" Name="Displacement" format="ascii">
-0.823772 -25.7938
-3.10102 -25.7143
0 0
0 0
1.45367 -25.8867
0 0
-0.0205644 -1.77806
0.249894 -1.48854
-0.0101257 -1.18996
-0.280975 -1.48082
-0.11313 -5.94744
0.381461 -5.44991
-0.0843638 -4.9287
-0.579412 -5.4272
-0.296937 -11.8924
0.359532 -11.2502
-0.249084 -10.5688
-0.905971 -11.2115
-0.557613 -18.9824
0.195115 -18.2564
-0.495577 -17.4803
-1.2488 -18.2065
-1.07861 -25.7842
-1.33457 -25.7754
-1.50966 -25.7693
-1.68491 -25.7633
-1.87539 -25.7564
-2.06606 -25.7498
-2.32366 -25.7406
-2.58176 -25.7319
-2.84066 -25.723
-3.09033 -25.4528
-3.07942 -25.1932
-3.06867 -24.9341
-3.05788 -24.6754
-3.04692 -24.4143
-3.03584 -24.1533
-3.02417 -23.882
-3.01231 -23.6108
-3.00073 -23.3502
-2.98895 -23.0897
-2.97697 -22.8295
-2.9648 -22.5695
-2.95243 -22.3097
-2.93986 -22.0502
-2.92709 -21.791
-2.91413 -21.5322
-2.90098 -21.2737
-2.88767 -21.0155
-2.87418 -20.7578
-2.86055 -20.5005
-2.84681 -20.2437
-2.83296 -19.9872
-2.81907 -19.7312
-2.80512 -19.4754
-2.79115 -19.2199
-2.77709 -18.9646
-2.76281 -18.7093
-2.74822 -18.4541
-2.73309 -18.1991
-2.71737 -17.9445
-2.70096 -17.6908
-2.68406 -17.4382
-2.6668 -17.1869
-2.64939 -16.937
-2.63197 -16.6884
-2.61459 -16.4409
-2.59728 -16.1947
-2.57999 -15.9494
-2.56271 -15.7052
-2.54538 -15.4619
-2.52799 -15.2196
-2.5105 -14.9783
-2.4929 -14.7379
-2.47519 -14.4986
-2.45734 -14.2604
-2.43937 -14.0232
-2.42126 -13.7872
-2.40304 -13.5523
-2.3847 -13.3185
-2.36627 -13.0859
-2.34777 -12.8545
-2.32922 -12.6242
-2.31067 -12.395
-2.2921 -12.167
-2.27354 -11.9398
-2.25491 -11.7136
-2.2361 -11.488
-2.21692 -11.2634
-2.19713 -11.0397
-2.17674 -10.8173
-2.15571 -10.5968
-2.13431 -10.3782
-2.11271 -10.1619
-2.09111 -9.94757
-2.06961 -9.73533
-2.04822 -9.525
-2.02694 -9.31647
-2.00572 -9.10969
-1.98453 -8.90461
-1.96332 -8.70125
-1.94206 -8.49958
-1.92073 -8.29964
-1.89931 -8.10145
-1.8778 -7.90502
-1.85618 -7.71039
-1.83446 -7.51759
-1.81263 -7.32663
-1.79071 -7.13755
-1.76869 -6.95037
-1.74659 -6.76511
-1.72445 -6.58177
-1.70227 -6.40035
-1.68012 -6.2208
-1.658 -6.04302
-1.63593 -5.86687
-1.61379 -5.69226
-1.59136 -5.51906
-1.5685 -5.34743
-1.5449 -5.17773
-1.5207 -5.0103
-1.49596 -4.84564
-1.471 -4.68381
-1.44595 -4.52493
-1.421 -4.36888
-1.39622 -4.21553
-1.37156 -4.06477
-1.34702 -3.91649
-1.32253 -3.77067
-1.29805 -3.62725
-1.27353 -3.48628
-1.24895 -3.34772
-1.22429 -3.21163
-1.19953 -3.07801
-1.17467 -2.9469
-1.14969 -2.81832
-1.12459 -2.6923
-1.09937 -2.56887
-1.07402 -2.44806
-1.04856 -2.32989
-1.023 -2.21439
-0.99738 -2.10159
-0.971721 -1.99143
-0.946118 -1.88387
-0.920552 -1.77876
-0.895023 -1.67589
-0.869346 -1.57516
-0.843216 -1.47652
-0.816453 -1.38032
-0.788899 -1.28699
-0.760769 -1.1969
-0.732162 -1.11051
-0.703431 -1.02774
-0.674729 -0.948659
-0.646144 -0.873052
-0.617716 -0.800792
-0.58937 -0.731784
-0.561083 -0.665932
-0.532776 -0.60323
-0.504416 -0.543648
-0.475965 -0.487213
-0.447393 -0.433928
-0.418693 -0.383827
-0.389843 -0.336928
-0.360851 -0.293259
-0.331707 -0.252842
-0.302425 -0.215694
-0.273009 -0.181833
-0.243473 -0.151258
-0.213855 -0.123964
-0.184159 -0.0999038
-0.154481 -0.0789978
-0.124784 -0.0610814
-0.095541 -0.0458803
-0.0662143 -0.0325132
-0.0360492 -0.019556
0 0
0 0
0 0
0 0
0 0
0 0
0 0
0 0
0 0
-0.567775 -25.8037
-0.312315 -25.8142
-0.137101 -25.8214
0.0378935 -25.8287
0.228791 -25.8364
0.419431 -25.8442
0.677619 -25.8545
0.935462 -25.8653
1.1946 -25.8758
1.46466 -25.6254
1.47468 -25.3654
1.48444 -25.106
1.49406 -24.8469
1.50366 -24.5855
1.51311 -24.3243
1.52278 -24.0527
1.53225 -23.7813
1.54116 -23.5204
1.54986 -23.2597
1.55833 -22.9992
1.56659 -22.7388
1.57461 -22.4787
1.58241 -22.2189
1.58996 -21.9593
1.5973 -21.7
1.6044 -21.441
1.61129 -21.1824
1.61797 -20.9241
1.62447 -20.6662
1.63081 -20.4087
1.637 -20.1516
1.6431 -19.8947
1.64909 -19.6382
1.65499 -19.3818
1.66074 -19.1255
1.66621 -18.8692
1.67128 -18.6131
1.67571 -18.3572
1.67947 -18.1018
1.68244 -17.8472
1.68481 -17.5937
1.6867 -17.3416
1.6883 -17.0908
1.68972 -16.8412
1.69102 -16.5928
1.69221 -16.3455
1.69325 -16.0992
1.69413 -15.8538
1.6948 -15.6093
1.69523 -15.3658
1.69541 -15.1232
1.69532 -14.8816
1.69496 -14.6411
1.6943 -14.4015
1.69337 -14.163
1.69216 -13.9256
1.69067 -13.6892
1.68893 -13.454
1.68694 -13.22
1.68473 -12.987
1.68232 -12.7552
1.67975 -12.5245
1.67703 -12.2948
1.67414 -12.066
1.67104 -11.8381
1.66756 -11.6109
1.6636 -11.3847
1.65888 -11.1594
1.65341 -10.9355
1.64711 -10.7134
1.64023 -10.4932
1.63292 -10.2752
1.62535 -10.0592
1.61763 -9.84529
1.60977 -9.63322
1.60179 -9.42294
1.59362 -9.2144
1.58525 -9.00754
1.57663 -8.80238
1.56774 -8.59891
1.55857 -8.39716
1.54908 -8.19715
1.53929 -7.9989
1.52918 -7.80244
1.51877 -7.60779
1.50803 -7.41499
1.497 -7.22406
1.48566 -7.03502
1.47404 -6.84788
1.46217 -6.66265
1.45007 -6.47932
1.43779 -6.29786
1.42535 -6.11817
1.41273 -5.94012
1.39985 -5.76364
1.38655 -5.58859
1.37263 -5.41518
1.35783 -5.24364
1.34223 -5.0744
1.32584 -4.90787
1.30896 -4.74416
1.29175 -4.58342
1.27436 -4.42547
1.25687 -4.27025
1.23925 -4.11762
1.22151 -3.96749
1.20358 -3.81983
1.18544 -3.6746
1.16704 -3.53182
1.14837 -3.39149
1.1294 -3.25364
1.11013 -3.11828
1.09056 -2.98545
1.07067 -2.85518
1.05047 -2.72748
1.02995 -2.6024
1.00913 -2.47996
0.987999 -2.36018
0.966595 -2.2431
0.944963 -2.12873
0.923124 -2.01703
0.901155 -1.90796
0.879061 -1.80136
0.856871 -1.69706
0.834391 -1.59494
0.81134 -1.49495
0.787548 -1.39741
0.762824 -1.30275
0.737369 -1.21133
0.711261 -1.12359
0.684835 -1.0395
0.658241 -0.959113
0.63158 -0.882244
0.604901 -0.808773
0.578147 -0.738602
0.551305 -0.671642
0.524309 -0.607884
0.497133 -0.547299
0.469748 -0.489911
0.442132 -0.435728
0.414282 -0.384779
0.386184 -0.337088
0.35785 -0.292679
0.329276 -0.251581
0.300481 -0.21381
0.271473 -0.179389
0.242273 -0.148318
0.212918 -0.1206
0.183422 -0.0961945
0.15387 -0.0750374
0.124235 -0.0569864
0.0949594 -0.0418302
0.0655387 -0.0288162
0.0353094 -0.0166516
0 0
0 0
0 0
0 0
0 0
0 0
0 0
0 0
0 0
0.0195921 -1.77636
0.0588817 -1.76982
0.096329 -1.75864
0.13119 -1.74291
0.162535 -1.7229
0.189931 -1.69898
0.212656 -1.67143
0.230564 -1.64087
0.243279 -1.60756
0.250908 -1.57233
0.25342 -1.53085
0.242103 -1.45054
0.230261 -1.41325
0.215097 -1.37699
0.196816 -1.34261
0.1763 -1.31055
0.153607 -1.28139
0.129562 -1.25572
0.10411 -1.23375
0.0780578 -1.21609
0.051304 -1.20272
0.0205796 -1.19343
-0.0410482 -1.19282
-0.0722023 -1.20142
-0.0995165 -1.2141
-0.126244 -1.23105
-0.152518 -1.25229
-0.177464 -1.27723
-0.201207 -1.30567
-0.222817 -1.33702
-0.242293 -1.37076
-0.258686 -1.40643
-0.271847 -1.44323
-0.286011 -1.5228
-0.284969 -1.56416
-0.278581 -1.59942
-0.267017 -1.63298
-0.250139 -1.66394
-0.228342 -1.69211
-0.201747 -1.71684
-0.171082 -1.73783
-0.136747 -1.75469
-0.0996854 -1.76712
-0.0606348 -1.77499
-0.0470008 -5.94497
0.0180459 -5.93412
0.0807698 -5.91519
0.139963 -5.88839
0.194412 -5.85413
0.243283 -5.81304
0.285576 -5.76568
0.32075 -5.71297
0.348181 -5.65559
0.367615 -5.59469
0.379686 -5.52314
0.373326 -5.37628
0.355589 -5.30404
0.332481 -5.24192
0.302796 -5.18312
0.267485 -5.12855
0.226894 -5.07911
0.18203 -5.03573
0.133281 -4.99891
0.081721 -4.96952
0.0277371 -4.94773
-0.0279719 -4.93415
-0.148021 -4.93277
-0.211274 -4.94703
-0.266103 -4.96836
-0.318744 -4.99726
-0.368838 -5.0335
-0.415168 -5.07628
-0.457418 -5.12506
-0.49444 -5.17896
-0.525929 -5.23709
-0.550866 -5.29856
-0.568944 -5.3622
-0.581749 -5.50011
-0.573713 -5.57189
-0.557709 -5.63341
-0.533528 -5.69185
-0.501319 -5.74605
-0.461711 -5.7953
-0.415158 -5.83868
-0.362664 -5.87557
-0.305007 -5.9053
-0.243396 -5.92739
-0.179028 -5.94156
-0.212863 -11.8897
-0.1299 -11.8761
-0.0495919 -11.8519
0.0267045 -11.8175
0.097565 -11.7735
0.161819 -11.7204
0.218321 -11.6593
0.266196 -11.5911
0.304695 -11.5169
0.333234 -11.438
0.353012 -11.3453
0.353001 -11.1547
0.333584 -11.0608
0.30613 -10.9801
0.269471 -10.9035
0.224565 -10.8323
0.171957 -10.7677
0.112719 -10.711
0.047589 -10.6627
-0.0220599 -10.6239
-0.0954749 -10.595
-0.171591 -10.5765
-0.33647 -10.5732
-0.423009 -10.591
-0.497819 -10.6181
-0.569293 -10.6551
-0.636669 -10.7017
-0.698472 -10.7568
-0.754043 -10.8198
-0.802117 -10.8895
-0.842172 -10.9648
-0.873134 -11.0444
-0.894648 -11.1271
-0.906325 -11.3065
-0.89328 -11.3999
-0.870469 -11.4802
-0.837396 -11.5565
-0.794489 -11.6274
-0.742484 -11.6918
-0.682143 -11.7486
-0.6146 -11.7971
-0.5409 -11.8362
-0.462449 -11.8654
-0.380624 -11.8843
-0.45225 -18.9783
-0.348456 -18.9588
-0.259213 -18.9287
-0.174585 -18.8872
-0.0958723 -18.8348
-0.0245368 -18.7725
0.0383867 -18.7014
0.0917179 -18.6225
0.134628 -18.537
0.166434 -18.4466
0.186704 -18.3525
0.190471 -18.1482
0.170973 -18.0417
0.141639 -17.95
0.101446 -17.8631
0.0512614 -17.7822
-0.00820067 -17.7087
-0.075812 -17.6439
-0.150601 -17.5887
-0.231202 -17.5442
-0.316519 -17.5109
-0.405169 -17.4896
-0.597683 -17.4847
-0.698601 -17.5044
-0.785694 -17.5347
-0.868678 -17.5763
-0.946453 -17.6288
-1.01752 -17.6911
-1.08091 -17.7623
-1.13538 -17.8412
-1.18019 -17.9265
-1.21435 -18.0168
-1.23742 -18.1106
-1.24833 -18.3027
-1.23587 -18.3978
-1.21157 -18.49
-1.17578 -18.5781
-1.12909 -18.6604
-1.0722 -18.7357
-1.00616 -18.8027
-0.931931 -18.8603
-0.850881 -18.9077
-0.764302 -18.944
-0.662355 -18.9708
-0.813271 -25.5364
-0.802942 -25.2782
-0.792673 -25.0196
-0.782396 -24.7609
-0.771916 -24.4969
-0.761444 -24.2329
-0.750989 -23.969
-0.740548 -23.7053
-0.730128 -23.4417
-0.719728 -23.1782
-0.70934 -22.9147
-0.698977 -22.6514
-0.688641 -22.3884
-0.678334 -22.1256
-0.668058 -21.8631
-0.657814 -21.6009
-0.647608 -21.3391
-0.637438 -21.0775
-0.627312 -20.8164
-0.617231 -20.5557
-0.607271 -20.2972
-0.59737 -20.0391
-0.588914 -19.8175
-0.580527 -19.5965
-0.57411 -19.4261
-0.567757 -19.2563
-0.562651 -19.1189
2.21301e-05 0.000720016
9.02478e-05 -0.00339915
0.000160572 -0.0119659
0.000196893 -0.0246852
0.000196374 -0.0416564
0.000153258 -0.062463
7.06062e-05 -0.0869309
-5.03991e-05 -0.114968
-0.000209563 -0.146493
-0.000405826 -0.18146
-0.000641905 -0.219872
-0.000917661 -0.261664
-0.00123659 -0.306819
-0.00159937 -0.355312
-0.0020097 -0.407132
-0.00246838 -0.462259
-0.00297912 -0.520686
-0.00354226 -0.582397
-0.00416182 -0.647381
-0.00483698 -0.715626
-0.00556746 -0.786605
-0.00635374 -0.860711
-0.00708159 -0.926952
-0.00785047 -0.995232
-0.00847262 -1.04912
-0.00910899 -1.10381
-0.00962841 -1.14783
-0.0214192 -1.83387
-0.0222763 -1.88974
-0.0233675 -1.95972
-0.0245048 -2.03083
-0.0260797 -2.12678
-0.0277367 -2.22478
-0.0298624 -2.34708
-0.0321011 -2.47235
-0.0344902 -2.60264
-0.0369927 -2.73591
-0.0401961 -2.90236
-0.0435666 -3.07312
-0.0464572 -3.2164
-0.0494593 -3.36251
-0.0525757 -3.51147
-0.0558034 -3.66323
-0.059144 -3.81772
-0.0625942 -3.97498
-0.0661013 -4.13237
-0.069706 -4.29234
-0.0727486 -4.42534
-0.0758375 -4.55979
-0.078209 -4.66218
-0.0805775 -4.76505
-0.0824924 -4.84768
-0.115507 -6.03981
-0.117905 -6.13254
-0.120911 -6.24797
-0.123985 -6.3644
-0.128141 -6.51982
-0.1324 -6.67681
-0.137721 -6.87034
-0.143173 -7.06603
-0.148845 -7.26709
-0.154642 -7.47028
-0.161878 -7.72087
-0.169294 -7.97453
-0.175511 -8.1849
-0.181844 -8.39729
-0.188292 -8.61166
-0.194853 -8.82802
-0.201524 -9.04624
-0.208302 -9.26641
-0.215075 -9.48484
-0.221945 -9.70508
-0.22764 -9.88683
-0.233377 -10.0695
-0.237762 -10.2081
-0.242095 -10.3468
-0.245594 -10.4585
-0.300809 -12.0101
-0.304724 -12.1284
-0.309617 -12.2754
-0.314582 -12.4232
-0.321247 -12.6197
-0.328003 -12.8172
-0.336354 -13.0595
-0.344816 -13.3031
-0.353521 -13.5521
-0.362326 -13.8023
-0.373193 -14.1091
-0.384191 -14.4177
-0.39331 -14.6723
-0.402513 -14.928
-0.411793 -15.1849
-0.421148 -15.4429
-0.430576 -15.7019
-0.44007 -15.962
-0.449473 -16.219
-0.458924 -16.4769
-0.466702 -16.6889
-0.474495 -16.9014
-0.480377 -17.0621
-0.486231 -17.2228
-0.490936 -17.3522
-1.80774 -18.2984
-0.103494 -0.0864002
-1.89194 -17.3584
-1.38907 -19.1753
-1.0351 -19.403
-0.394362 -6.08149
-0.673292 -12.0907
-0.970456 -5.562
-1.82483 -11.6372
-1.39199 -11.1156
-0.0555026 -1.04409
-0.202791 -4.65901
-0.406982 -10.2006
-0.659619 -17.0504
-0.647924 -17.4011
-0.675102 -19.0947
-0.385142 -10.4975
-0.183939 -4.87829
-0.0562643 -1.1649
-1.60947 -10.5945
-1.33132 -10.8235
-0.794644 -13.8235
-2.07763 -19.4744
-1.628 -12.1811
-1.05668 -10.0466
-2.56128 -25.3615
-0.00878746 -0.000922555
-0.642065 -1.96496
-0.222222 -2.00198
-1.14359 -25.2669
-0.0511583 -0.0219218
-2.48624 -18.0963
-2.00266 -10.9312
-1.40352 -5.1637
-0.780426 -1.52286
-0.640914 -1.63685
-0.615152 -1.446
-0.612951 -1.72764
-0.54094 -1.97989
-1.14766 -5.29732
-1.65423 -10.9622
-1.42282 -12.2527
-2.06669 -18.172
-1.4549 -10.7068
-1.996 -18.3747
-0.105862 -1.88671
-0.312502 -6.15905
-0.561417 -12.1881
-0.585026 -11.9983
-0.414931 -12.0893
-0.493543 -11.9576
-0.410886 -11.9712
-0.330635 -6.01781
-0.201221 -6.09564
-0.263701 -5.99296
-0.198729 -6.00312
-0.127557 -1.83584
-0.0554573 -1.86592
-0.0940636 -1.80449
-0.0545751 -1.81017
-0.00909661 -0.00434995
-0.00313616 -0.00138242
-0.00314361 0.000957323
-0.00122693 0.00106188
-1.29525 -25.4243
-1.22838 -25.6215
-0.962737 -25.373
-0.972866 -25.631
-2.71674 -25.1769
-2.91943 -25.2903
-2.67052 -25.5599
-2.92973 -25.5505
-0.0307614 -0.0111505
-0.0140528 -0.0046398
-0.0475876 -0.0226532
-0.0174081 -0.00809675
-0.98079 -13.7352
-0.38083 -3.41743
-0.40841 -3.17122
-0.237357 -3.06783
-0.389502 -2.95346
-1.10656 -13.5394
-1.64548 -20.4287
-0.879343 -13.3286
-1.31243 -9.36219
-1.13792 -9.41404
-1.16174 -9.23942
-1.23102 -9.01359
-0.0786172 -0.0436083
-1.73688 -21.2509
-1.57003 -20.7089
-0.327518 -2.70979
-0.379622 -3.7113
-0.656604 -8.80789
-1.103 -9.63738
-1.25315 -9.70972
-1.41867 -9.84387
-1.06528 -9.81041
-1.27531 -10.0266
-0.307048 -0.879783
-0.741834 -4.40156
-0.191482 -2.78946
-0.198763 -2.95722
-0.211585 -3.17532
-0.217813 -3.32054
-0.210941 -3.45897
-0.21703 -3.60966
-0.386565 -7.58106
-0.427206 -8.70889
-0.580617 -13.438
-0.590635 -13.6876
-0.566037 -13.9383
-0.578174 -14.2458
-0.771897 -14.2847
-0.578297 -14.4565
-0.588316 -14.7112
-0.719796 -15.3391
-0.709225 -15.0816
-0.775014 -14.8437
-0.959351 -14.6277
-0.968817 -14.3964
-0.967132 -14.1861
-0.958116 -13.986
-0.418639 -8.4937
-0.408693 -8.27125
-0.400258 -8.06013
-0.39671 -7.83293
-0.982658 -15.4977
-1.08267 -14.9977
-1.1557 -14.5286
-1.15453 -14.0973
-0.64546 -8.36781
-0.627352 -7.91871
-0.603342 -7.48414
-0.208339 -0.549416
-1.88766 -24.5695
-1.57688 -16.0702
-1.29058 -15.4024
-1.29411 -15.124
-1.35779 -14.8863
-1.36777 -14.6404
-1.37555 -14.4092
-1.36424 -14.1711
-1.35367 -13.9711
-1.27049 -13.7012
-0.891628 -8.71514
-0.878208 -8.46819
-0.863831 -8.24624
-0.854237 -8.02084
-0.845869 -7.79434
-0.838441 -7.55939
-1.02297 -7.06423
-0.538539 -3.65031
-0.534391 -3.50247
-0.535778 -3.36372
-0.533149 -3.2332
-0.554537 -3.12547
-0.541311 -3.0031
-0.497917 -2.89328
-0.474301 -2.7683
-0.301804 -0.798763
-0.291919 -0.723373
-0.280006 -0.654036
-0.267665 -0.589482
-0.255117 -0.528614
-1.89381 -23.9651
-1.88978 -24.2435
-1.88221 -23.4277
-1.88382 -23.6943
-1.88424 -22.9119
-1.87545 -23.1748
-1.88915 -22.6929
-0.0651082 -0.0420121
-0.0783394 -0.061669
-0.221848 -0.376487
-0.231486 -0.419278
-0.242265 -0.473271
-0.919933 -6.72585
-0.98203 -6.90708
-1.6499 -20.1943
-1.41215 -13.2204
-1.16644 -13.2949
-2.1291 -24.4492
-2.12102 -23.8525
-2.10403 -23.3289
-2.10194 -22.857
-1.9604 -22.4161
-1.78895 -20.6539
-1.86961 -20.1037
-1.76857 -16.2942
-1.68012 -15.8017
-1.56767 -15.2904
-1.579 -14.7662
-1.57572 -14.2824
-1.47898 -13.7747
-1.11268 -8.59224
-1.08494 -8.12053
-1.06308 -7.66066
-1.12231 -7.2641
-1.14783 -6.9449
-1.05678 -6.59555
-0.860314 -4.52099
-0.801128 -4.23638
-0.697626 -3.59565
-0.685432 -3.31729
-0.664756 -3.06447
-0.622891 -2.81741
-0.379348 -0.938434
-0.358992 -0.771963
-0.330755 -0.631798
-0.29998 -0.511572
-0.272699 -0.413022
-0.221288 -0.327327
-1.61517 -24.6357
-1.65288 -24.0853
-1.65546 -23.5402
-1.66288 -23.0106
-1.78733 -21.8808
-1.74317 -22.4708
-1.43179 -20.2491
-0.0528179 -0.0413494
-0.0849371 -0.0861816
-0.127855 -0.14967
-0.165013 -0.235479
-0.184682 -0.332812
-0.190568 -0.435067
-0.227184 -0.679203
-0.238696 -0.829099
-0.517477 -2.3416
-0.569418 -2.56827
-0.450258 -2.63521
-0.544314 -3.80571
-0.715647 -3.91956
-0.66738 -4.26065
-0.795669 -6.84419
-0.953899 -7.22595
-0.818161 -7.35187
-0.892507 -8.93289
-1.0591 -9.06469
-0.952363 -9.51379
-1.25632 -15.6647
-1.46222 -15.8369
-0.618924 -2.26371
-0.385696 -2.2703
-1.2987 -16.3784
-1.54866 -16.3297
-1.6556 -19.9245
-1.18443 -13.0107
-0.642963 -13.1936
-1.854 -24.8416
-0.052316 -0.0258757
-2.00459 -25.0466
-2.24523 -25.0552
-2.40017 -24.8708
-2.36335 -24.603
-2.3653 -24.2771
-2.35237 -23.9999
-2.34216 -23.7292
-2.33078 -23.4642
-2.32377 -23.2113
-2.31024 -22.9608
-2.31491 -22.7419
-2.26727 -22.4831
-2.12075 -22.2611
-2.07357 -22.0068
-2.04609 -21.6937
-2.04772 -21.4226
-2.02383 -21.106
-2.02623 -20.8268
-2.1013 -20.5465
-2.10719 -20.2758
-2.11232 -20.0059
-2.10017 -19.7379
-1.97499 -16.6636
-1.9593 -16.3944
-1.98584 -16.1347
-1.9679 -15.8753
-1.85158 -15.6426
-1.81463 -15.4075
-1.81571 -15.1293
-1.80487 -14.8819
-1.81294 -14.6362
-1.79986 -14.394
-1.78663 -14.1561
-1.75917 -13.9101
-1.67366 -13.6405
-1.65222 -13.3886
-1.66752 -13.1041
-1.65989 -12.8598
-1.66671 -12.6221
-1.65044 -12.3897
-1.479 -9.9873
-1.45409 -9.67085
-1.47203 -9.44151
-1.4936 -9.26701
-1.47607 -9.06056
-1.37135 -8.88681
-1.33862 -8.6855
-1.32043 -8.43924
-1.30456 -8.22588
-1.29044 -8.00103
-1.27728 -7.79303
-1.26495 -7.55847
-1.2645 -7.37086
-1.33195 -7.20841
-1.31974 -7.02476
-1.27618 -6.868
-1.25086 -6.68662
-1.20019 -6.49456
-1.18924 -6.31197
-1.21271 -6.12242
-0.993102 -4.59018
-1.00888 -4.44542
-0.982415 -4.29152
-0.904402 -4.1517
-0.882288 -4.00279
-0.867978 -3.8268
-0.855531 -3.67712
-0.845756 -3.52931
-0.833566 -3.39102
-0.825904 -3.26048
-0.810261 -3.1287
-0.792534 -3.00654
-0.771278 -2.87823
-0.742249 -2.7537
-0.715639 -2.62588
-0.685645 -2.5017
-0.646171 -2.36574
-0.647689 -2.18309
-0.655966 -2.06457
-0.459849 -0.986428
-0.448728 -0.895246
-0.431949 -0.816972
-0.415773 -0.741366
-0.397224 -0.673068
-0.379121 -0.608241
-0.359777 -0.547735
-0.34155 -0.492039
-0.32198 -0.438765
-0.307918 -0.395623
-0.280505 -0.346053
-0.240143 -0.303807
-0.215867 -0.260903
-0.191987 -0.212864
-0.174394 -0.175455
-0.152404 -0.137909
-0.135495 -0.107916
-0.12345 -0.0821899
-0.104962 -0.0607847
-0.086341 -0.0430021
-0.0662419 -0.0290363
-0.0347463 -0.0138097
-0.0261053 -0.0109639
-1.38894 -24.7281
-1.37301 -24.9868
-1.42457 -24.1924
-1.42251 -24.4561
-1.42561 -23.6458
-1.42871 -23.914
-1.42215 -23.1142
-1.42421 -23.3791
-1.4409 -22.584
-1.43123 -22.8512
-1.46857 -21.439
-1.48765 -21.7173
-1.51431 -22.0306
-1.51238 -22.3072
-1.39931 -20.867
-1.44568 -21.1222
-1.22506 -20.3722
-1.25657 -20.6415
-1.23011 -20.1378
-0.0266322 -0.0173655
-0.0364868 -0.031946
-0.0437989 -0.0504908
-0.0548299 -0.0732803
-0.0754691 -0.0996791
-0.0886122 -0.129149
-0.101952 -0.166877
-0.114348 -0.205831
-0.129605 -0.254142
-0.138562 -0.300245
-0.133938 -0.348595
-0.139512 -0.399623
-0.144807 -0.453055
-0.152341 -0.510965
-0.159339 -0.571433
-0.166771 -0.635084
-0.173054 -0.704055
-0.177549 -0.778372
-0.408069 -2.37257
-0.426078 -2.51069
-0.173614 -2.65587
-0.217152 -3.76474
-0.552057 -3.98185
-0.540339 -4.14522
-0.605532 -6.76707
-0.664245 -6.94862
-0.721974 -7.1513
-0.371067 -7.37314
-0.424068 -8.92694
-0.820786 -9.15859
-0.780912 -9.39931
-0.683402 -15.6015
-1.15194 -15.9329
-1.12195 -16.1975
-0.643406 -1.38506
-0.755998 -1.42515
-0.797534 -1.74792
-0.704632 -1.79222
-1.20867 -5.19833
-1.42537 -5.33352
-1.207 -5.95212
-1.80973 -10.8488
-1.4366 -12.6986
-1.2122 -12.7304
-1.82954 -16.838
-2.06513 -16.9477
-0.523375 -2.15924
-0.424181 -2.16755
-0.873078 -6.53324
-1.48957 -16.6032
-1.61924 -16.789
-0.176898 -0.859107
-0.477817 -4.30973
-0.743156 -9.62298
-1.06154 -16.4707
-2.50117 -18.3513
-0.31064 -0.970559
-0.722043 -4.54572
-2.05351 -19.0082
-2.06277 -19.2349
-1.85274 -19.5704
-1.6493 -19.6547
-1.43056 -19.7451
-1.20669 -19.8424
-0.318402 -2.19789
-0.675856 -6.51375