<?xml version="1.0"?>
<VTKFile type="UnstructuredGrid">
  <UnstructuredGrid>
  <Piece NumberOfPoints="3487"  NumberOfCells="1698">
    <Points>
      <DataArray type="Float64" NumberOfComponents="3" format="ascii">
39.9734 48.7195 0
60.027 48.7188 0
40.6342 48.8503 0
41.2965 48.9723 0
41.9602 49.0852 0
42.6252 49.1891 0
43.2915 49.2841 0
43.9591 49.37 0
44.6276 49.4469 0
45.2971 49.5147 0
45.9675 49.5736 0
46.6385 49.6234 0
47.3102 49.6641 0
47.9823 49.6958 0
48.6548 49.7184 0
49.3275 49.732 0
50.0004 49.7365 0
50.6732 49.732 0
51.3459 49.7183 0
52.0184 49.6956 0
52.6905 49.6639 0
53.3621 49.6231 0
54.0332 49.5733 0
54.7035 49.5144 0
55.373 49.4465 0
56.0415 49.3696 0
56.709 49.2836 0
57.3753 49.1886 0
58.0404 49.0847 0
58.704 48.9717 0
59.3662 48.8497 0
39.9954 49.7354 0
39.9947 49.4814 0
39.9907 49.2275 0
39.9836 48.9735 0
19.9247 69.6649 0
39.9929 49.9971 0
39.9869 50.2587 0
39.9722 50.6371 0
39.9503 51.0151 0
39.9059 51.5613 0
39.8466 52.106 0
39.7343 52.891 0
39.5908 53.6709 0
39.3288 54.788 0
39.0029 55.8884 0
38.728 56.6718 0
38.4208 57.4433 0
38.0817 58.2014 0
37.7115 58.9448 0
37.1218 59.9918 0
36.4702 61.0015 0
35.7592 61.9702 0
-0.0393102 49.6288 0
17.3148 69.4872 0
14.7503 68.9708 0
12.2751 68.1247 0
9.93112 66.9632 0
7.75864 65.5061 0
11.5458 31.6658 0
0.16699 46.8101 0
0.77004 44.0491 0
1.75803 41.4015 0
0 0 0
0.120747 3.71249 0
0.530131 7.40993 0
1.22157 11.0681 0
2.19017 14.6622 0
3.09679 17.3089 0
49.9998 -0.252195 0
5.1116 0 0
10.2232 0 0
15.3348 0 0
100 0 0
57.403 -0.244325 0
64.8063 -0.215589 0
72.2038 -0.155378 0
88.4547 31.6653 0
99.8793 3.71248 0
99.47 7.40977 0
98.7786 11.0679 0
97.81 14.662 0
96.9034 17.3087 0
100.039 49.6285 0
99.8331 46.8098 0
99.2301 44.0489 0
98.2421 41.4011 0
80.0753 69.6645 0
99.8735 52.2389 0
99.3676 54.8053 0
98.5307 57.2836 0
97.3772 59.6314 0
95.9272 61.8085 0
60.0048 49.7348 0
77.5643 69.5133 0
75.0921 69.0486 0
72.6976 68.2778 0
70.4186 67.2129 0
68.9303 66.3138 0
67.5256 65.2891 0
66.2151 64.1462 0
65.0087 62.894 0
64.2408 61.9696 0
63.5298 61.0008 0
62.8783 59.9911 0
62.2886 58.9441 0
61.5794 57.4428 0
60.9972 55.8877 0
60.6714 54.7874 0
60.4093 53.6702 0
60.2659 52.8903 0
60.0056 49.4808 0
60.0096 49.2268 0
60.0168 48.9728 0
52.8173 29.9922 0
26.5367 36.8154 0
40.3391 24.1214 0
24.9469 22.4065 0
71.9235 22.4296 0
72.7036 43.867 0
54.7999 23.9433 0
15.294 47.3174 0
38.3592 49.3468 0
23.5762 65.1427 0
7.68903 7.72897 0
91.9525 7.70714 0
29.1513 56.7961 0
37.179 51.8172 0
28.0871 47.1105 0
29.7255 48.0719 0
71.5161 46.5955 0
30.9833 48.9703 0
70.5169 48.0732 0
31.6369 45.5587 0
30.8864 47.0134 0
70.0645 46.5844 0
68.982 44.909 0
31.2863 50.0652 0
30.8973 51.2877 0
28.1836 49.0666 0
45.3093 41.1951 0
53.843 40.8162 0
56.0261 40.3651 0
73.1299 47.3498 0
70.1183 49.3136 0
68.3292 42.3393 0
32.3142 42.6695 0
26.136 45.5931 0
27.6778 44.5982 0
30.3069 43.2273 0
70.4102 42.5381 0
72.6773 45.8615 0
44.8499 42.9874 0
51.4304 41.894 0
55.4089 42.4803 0
32.4473 49.0068 0
68.5588 49.55 0
39.4791 41.9787 0
35.4418 43.2945 0
32.8947 46.4569 0
33.5756 48.2047 0
67.1056 48.1493 0
67.9826 46.387 0
65.0706 42.9576 0
60.4171 41.6161 0
32.3614 51.3247 0
28.2094 50.9248 0
41.7807 37.2016 0
46.8244 37.606 0
52.0486 39.7787 0
58.6759 39.1483 0
26.5965 51.8207 0
24.2922 50.2546 0
74.2338 49.8619 0
71.1716 50.5645 0
69.1502 52.1449 0
67.9248 52.2788 0
59.7595 36.2687 0
66.4995 40.5856 0
34.1109 40.9621 0
36.0298 35.7007 0
23.1795 47.086 0
21.6464 43.1915 0
28.3563 41.7111 0
74.3173 44.6215 0
76.6426 48.4685 0
43.0552 43.5754 0
46.2693 42.8612 0
49.9681 42.9091 0
48.4331 42.692 0
51.763 43.9466 0
54.0879 44.0623 0
52.9058 44.3579 0
56.2718 43.611 0
33.8788 49.2999 0
33.7777 50.8131 0
66.543 51.6281 0
66.5991 49.6374 0
41.833 43.8129 0
40.7041 43.5504 0
38.4623 43.1577 0
37.1438 43.7627 0
35.3472 45.4702 0
34.326 46.7494 0
66.0233 46.4733 0
65.0176 45.2002 0
63.1881 43.4463 0
61.7026 42.9972 0
58.8774 43.4107 0
57.5381 43.7269 0
33.3886 52.0361 0
29.1561 53.645 0
40.838 30.9254 0
50.885 35.92 0
55.6655 34.2024 0
23.548 53.3659 0
76.9288 51.8349 0
70.248 53.2517 0
66.4153 52.8693 0
65.4675 35.0855 0
30.9591 34.5043 0
19.44 47.2062 0
26.1325 39.9488 0
71.9956 34.0258 0
72.0498 41.299 0
77.4868 45.2239 0
43.1679 45.0175 0
45.8099 44.6537 0
48.7649 44.7446 0
51.4433 45.3731 0
53.7686 45.4888 0
56.2174 45.3092 0
34.9061 50.0111 0
65.0895 50.2273 0
40.8163 44.9924 0
38.3687 45.3347 0
36.0286 47.2186 0
64.14 46.9632 0
61.6485 45.2412 0
58.8235 45.1087 0
36.0612 52.2856 0
34.9089 53.0481 0
33.4927 53.5592 0
31.8892 55.3503 0
26.0742 58.8155 0
22.9786 57.2187 0
32.406 22.6347 0
47.0385 26.6113 0
63.131 22.9754 0
19.9729 54.9272 0
80.2044 54.1927 0
75.8165 55.7021 0
71.9528 56.0559 0
69.104 55.3781 0
65.7841 53.8782 0
64.1076 53.7233 0
68.1446 28.9306 0
26.7867 30.0208 0
17.2247 51.6588 0
14.5966 42.363 0
22.4119 33.9965 0
84.9046 46.7792 0
84.7363 51.9293 0
75.1633 37.8614 0
81.2157 43.8597 0
42.4571 46.348 0
41.4166 46.1563 0
44.9659 46.1935 0
43.6797 46.1104 0
47.7365 46.1347 0
46.3859 46.0672 0
50.62 46.4479 0
49.2721 46.3519 0
53.0506 46.843 0
51.7631 46.8593 0
55.5129 46.4554 0
54.233 46.5474 0
58.0611 46.4091 0
56.7796 46.5713 0
36.3719 48.5409 0
36.0239 49.5423 0
35.9228 51.0561 0
63.3918 51.99 0
63.834 50.9771 0
63.8902 48.9855 0
63.8381 48.0829 0
40.2874 45.8936 0
39.3716 46.0731 0
38.0526 46.6776 0
37.3935 47.2616 0
62.8324 46.8095 0
62.0164 46.4852 0
60.5303 46.0366 0
59.4008 46.0925 0
38.0525 52.4881 0
36.165 53.8094 0
34.0578 56.669 0
29.5752 59.7343 0
22.8457 61.2768 0
21.7454 15.3713 0
39.9706 16.1491 0
48.9014 11.4282 0
56.9389 16.8776 0
76.637 15.6057 0
15.611 56.971 0
84.5484 57.4059 0
73.435 59.3971 0
66.5346 55.5376 0
62.466 53.4952 0
82.9405 7.81952 0
79.7321 22.5562 0
16.3072 7.90181 0
18.3568 22.2745 0
10.7057 46.6745 0
16.5889 35.9313 0
15.5378 30.3434 0
89.4243 49.5485 0
83.2956 31.1854 0
81.5716 39.2225 0
41.9283 47.2494 0
44.2555 47.5241 0
46.8928 47.6746 0
49.5917 47.8381 0
52.2273 47.9179 0
54.7949 47.8097 0
57.3566 47.5554 0
37.3889 49.5859 0
37.9142 51.258 0
62.1922 50.7482 0
62.5823 48.8323 0
39.9717 47.2373 0
38.3964 48.0004 0
38.5108 48.7704 0
61.7659 48.4686 0
61.714 47.6053 0
59.7682 47.3373 0
38.8844 51.0194 0
61.3527 50.9534 0
39.1893 52.7999 0
38.4541 53.3588 0
38.1602 54.4674 0
37.008 55.2295 0
36.501 57.002 0
34.8503 58.5224 0
33.3399 60.3776 0
30.72 62.4843 0
27.9566 64.6322 0
27.1746 7.78429 0
38.6582 8.28721 0
59.8747 8.50998 0
71.7616 7.86141 0
19.2018 64.5833 0
14.9063 62.846 0
10.7086 60.0554 0
6.26289 57.0089 0
5.97679 51.078 0
94.2579 52.1744 0
93.3466 57.2277 0
89.3642 60.5745 0
84.6133 63.0899 0
79.5071 64.7661 0
74.6066 63.8044 0
70.2962 62.5281 0
66.8567 61.0789 0
65.2379 58.4093 0
62.7352 57.0862 0
62.0895 55.5581 0
61.7956 54.4494 0
61.0797 52.7157 0
93.4985 14.528 0
89.7941 20.6858 0
86.1007 25.0178 0
6.24783 14.5214 0
13.0172 24.4853 0
9.79051 20.6762 0
5.74517 45.5126 0
5.64733 40.5716 0
12.3122 34.6588 0
94.2459 47.0578 0
88.1161 36.9997 0
93.3686 42.3334 0
41.0918 48.015 0
40.4307 47.8886 0
42.1328 48.2067 0
43.4639 48.4055 0
42.797 48.315 0
44.7505 48.4885 0
46.0902 48.6152 0
45.4195 48.5609 0
47.4411 48.6827 0
48.7855 48.737 0
48.113 48.7189 0
50.1337 48.8331 0
51.479 48.8149 0
50.8065 48.833 0
52.7667 48.7986 0
54.1092 48.708 0
53.4386 48.7624 0
55.3893 48.616 0
56.7252 48.4531 0
56.0583 48.5435 0
58.0071 48.2908 0
59.3324 48.056 0
58.6713 48.1824 0
39.369 51.472 0
39.3172 52.0175 0
60.9519 51.9333 0
60.9 51.3879 0
38.0109 50.3485 0
39.1328 49.5331 0
61.7948 49.9401 0
61.8181 49.3716 0
60.9784 49.5765 0
39.5145 48.0678 0
39.1703 48.1864 0
60.9496 48.1444 0
60.4625 47.9998 0
39.4657 50.5623 0
60.5026 50.5797 0
39.4883 49.9225 0
39.484 50.1841 0
60.4843 50.2015 0
60.48 49.9399 0
39.6401 49.3459 0
39.629 48.838 0
39.6377 49.0919 0
60.5032 49.3711 0
60.5056 49.1172 0
60.5144 48.8634 0
61.0017 49.0079 0
39.2846 48.9566 0
60.9553 50.1452 0
38.9811 50.1097 0
60.898 47.2809 0
39.0557 47.4163 0
62.6345 49.7352 0
37.0405 50.5874 0
61.7502 51.7615 0
38.7877 51.929 0
58.6384 47.393 0
56.075 47.7176 0
53.5149 47.9017 0
50.9397 47.9342 0
48.2436 47.742 0
45.542 47.6071 0
42.969 47.441 0
40.8876 47.0577 0
89.1637 44.7063 0
10.9202 40.8383 0
13.2806 16.1516 0
85.8806 16.3583 0
63.182 55.2287 0
68.9365 58.3919 0
78.9682 59.7808 0
89.3136 54.8288 0
11.7505 52.7786 0
19.2094 59.6066 0
66.7053 15.7041 0
30.7664 15.4277 0
26.331 62.0525 0
32.1442 57.9079 0
35.0127 54.5717 0
37.3173 53.0471 0
62.5303 47.9294 0
37.7369 48.5843 0
75.9316 28.6279 0
20.5223 28.5383 0
47.9158 19.2305 0
60.1629 44.7921 0
63.1347 45.6898 0
37.0496 45.9391 0
39.6872 44.7297 0
65.1461 48.2363 0
65.0337 52.2187 0
34.8049 51.5247 0
35.0069 48.4977 0
57.4839 45.4251 0
54.9509 45.1932 0
52.5863 45.7844 0
50.3004 44.9618 0
47.2295 44.5274 0
44.3902 44.7799 0
41.9454 45.255 0
74.3433 42.6277 0
80.2731 48.8068 0
17.9944 43.2672 0
21.3018 50.7175 0
34.4486 29.6482 0
59.9809 30.1978 0
67.7971 53.5199 0
73.4112 52.955 0
54.4606 38.701 0
46.5099 32.8579 0
26.2214 55.3234 0
31.9723 52.5475 0
69.7576 39.9689 0
30.9839 40.3386 0
57.5924 42.029 0
63.242 41.2031 0
66.9006 44.711 0
33.6447 45.0017 0
37.2376 41.5863 0
41.7206 42.3709 0
68.0525 51.038 0
32.7504 50.1019 0
53.2252 42.9315 0
49.636 40.8565 0
74.2912 46.6157 0
25.727 43.082 0
71.9686 48.0841 0
26.5451 48.1051 0
69.0654 48.0624 0
32.1442 47.9118 0
71.0638 45.1069 0
29.6287 46.1155 0
29.8221 50.0286 0
88.1478 34.3446 0
96.8886 38.9208 0
91.2972 35.6957 0
92.2304 38.5549 0
96.0829 37.7593 0
88.4994 40.731 0
3.11152 38.9211 0
11.8808 33.1197 0
10.0083 34.9798 0
3.91731 37.7595 0
8.31826 37.4753 0
11.6942 36.9939 0
11.4035 22.5817 0
10.9921 26.4341 0
9.37857 24.5332 0
11.8733 28.9128 0
4.15249 19.8984 0
5.35393 22.4221 0
8.24189 22.7714 0
11.5348 18.4126 0
13.1475 20.3192 0
8.01818 17.601 0
6.97056 20.2879 0
5.19881 17.2082 0
6.69684 24.8716 0
7.79649 26.6582 0
4.21853 14.592 0
9.76309 15.338 0
87.9478 22.8525 0
90.4139 24.5373 0
88.5669 26.6985 0
91.5506 22.7758 0
95.8476 19.8982 0
94.6461 22.4218 0
87.7079 29.2262 0
85.9922 20.6888 0
[...]
    <PointData>
      <DataArray type="Float64" NumberOfComponents="2" Name="Displacement" format="ascii">
-0.000803037 -0.265043
0.00120419 -0.265699
-0.000187994 -0.264712
0.000244173 -0.264362
0.000473461 -0.264122
0.000632618 -0.26392
0.000729416 -0.263771
0.000790772 -0.263667
0.000813684 -0.263579
0.000812706 -0.263516
0.000788042 -0.263478
0.00074658 -0.263461
0.000687936 -0.263446
0.000617895 -0.263444
0.000537499 -0.263454
0.000451139 -0.263475
0.000359471 -0.263493
0.000266685 -0.26352
0.000174963 -0.263555
8.72994e-05 -0.2636
6.96285e-06 -0.263644
-6.42337e-05 -0.263701
-0.000122694 -0.263773
-0.000165853 -0.263862
-0.000186558 -0.263958
-0.000185614 -0.264081
-0.000155179 -0.264237
-9.23255e-05 -0.26443
4.32125e-05 -0.264641
0.000237619 -0.264924
0.000603327 -0.265315
-0.00455203 -0.26455
-0.00368193 -0.264582
-0.00281725 -0.264644
-0.00192088 -0.264788
-0.0753155 -0.335056
-0.00539648 -0.264556
-0.0062435 -0.26458
-0.00747957 -0.264638
-0.00872803 -0.264727
-0.0105412 -0.264906
-0.0123786 -0.265142
-0.0150767 -0.265588
-0.0178114 -0.266155
-0.0218121 -0.267196
-0.0258422 -0.26849
-0.02875 -0.269581
-0.0316451 -0.270804
-0.0345117 -0.272167
-0.037338 -0.273653
-0.0413291 -0.276018
-0.0451887 -0.278622
-0.0488768 -0.281452
-0.0393102 -0.371181
-0.0746703 -0.34174
-0.0732702 -0.3477
-0.0713001 -0.352873
-0.068877 -0.35727
-0.0661681 -0.360951
0.0493956 -0.232001
-0.0327701 -0.370268
-0.0250093 -0.367865
-0.0159429 -0.36373
0 0
-0.0185227 -0.0167946
-0.0261706 -0.0278593
-0.0272036 -0.0367913
-0.0226205 -0.047717
-0.0163387 -0.0583219
-0.000224513 -0.252195
0 0
0 0
0 0
0 0
0.0146478 -0.244325
0.0294841 -0.215589
0.0386418 -0.155378
-0.0488886 -0.232568
0.0185953 -0.0167691
0.0262843 -0.0279566
0.0273361 -0.0369432
0.0227673 -0.0479167
0.0164854 -0.0585277
0.0394201 -0.371472
0.0328786 -0.370553
0.025163 -0.368142
0.0160692 -0.364059
0.0752711 -0.335518
0.0446172 -0.371609
0.0491101 -0.371042
0.0531173 -0.370068
0.0567111 -0.368584
0.0600712 -0.366727
0.00482239 -0.265224
0.075037 -0.328495
0.0738127 -0.321012
0.0714867 -0.313228
0.0680153 -0.30536
0.0649164 -0.299994
0.0612716 -0.294769
0.0570854 -0.289779
0.0524167 -0.285084
0.0489202 -0.282063
0.0452428 -0.279243
0.0413946 -0.276647
0.037415 -0.274289
0.0317467 -0.271461
0.0259646 -0.269134
0.0219503 -0.267853
0.0179757 -0.266826
0.0152525 -0.26626
0.00397819 -0.265266
0.00313783 -0.265336
0.00224849 -0.26548
-0.0051083 -0.256907
0.0225043 -0.255793
0.017679 -0.246662
0.029862 -0.199936
-0.0301559 -0.211808
-0.0046663 -0.277028
-0.0091483 -0.252942
-0.02126 -0.313545
-0.00361895 -0.268807
-0.062063 -0.323613
-0.0196472 -0.0357523
0.0193074 -0.0364343
-0.0326419 -0.299755
-0.0118063 -0.273138
-0.00358059 -0.28385
-0.0049842 -0.283365
0.00199369 -0.282566
-0.0065993 -0.282955
0.00537044 -0.284355
0.00289515 -0.275325
-0.0012517 -0.2793
0.00092003 -0.280406
-0.00399372 -0.275384
-0.00957127 -0.28436
-0.0135677 -0.287262
-0.00916162 -0.288274
0.00448394 -0.261793
-0.0035228 -0.262073
-0.0059222 -0.26203
0.00553752 -0.286985
0.00862142 -0.286225
-0.0100683 -0.269456
0.00961873 -0.269013
-0.000960229 -0.282779
0.00311179 -0.278011
0.00799246 -0.271876
-0.0092149 -0.271454
0.000865757 -0.282395
0.00384674 -0.262375
-0.00100192 -0.262289
-0.00398932 -0.262701
-0.00570649 -0.280323
0.0081416 -0.283736
0.00853694 -0.263216
0.00831672 -0.26733
0.00127185 -0.275237
-0.00283453 -0.276988
0.00328985 -0.278695
-0.000799861 -0.276993
-0.00876063 -0.267963
-0.00864151 -0.263588
-0.0126399 -0.284148
-0.0147127 -0.292239
0.0107422 -0.259616
0.00426769 -0.260468
-0.00202111 -0.261672
-0.00957233 -0.261617
-0.0190123 -0.297585
-0.0167997 -0.298919
0.0141028 -0.295382
0.0132253 -0.290792
0.016441 -0.289347
0.0160035 -0.286759
-0.0131588 -0.259419
-0.0132932 -0.265128
0.0126306 -0.264857
0.0185282 -0.256849
-0.00865736 -0.29221
0.00149858 -0.28142
0.0110551 -0.26965
-0.00127149 -0.281134
0.0127339 -0.296549
0.00459565 -0.262733
0.00291202 -0.262333
0.000236863 -0.26249
0.00138206 -0.262359
-0.00083913 -0.262831
-0.00217918 -0.262991
-0.00138317 -0.262985
-0.00379458 -0.263145
-0.00566054 -0.278053
-0.0101727 -0.280338
0.013084 -0.282701
0.00712354 -0.280073
0.00509507 -0.263104
0.00601054 -0.263475
0.00764786 -0.26462
0.00722976 -0.266248
0.00425644 -0.270276
0.00117329 -0.273542
-0.00143862 -0.274274
-0.00449371 -0.271022
-0.00755799 -0.266894
-0.00768153 -0.265269
-0.00561235 -0.263843
-0.00447273 -0.263459
-0.0142318 -0.282792
-0.0223737 -0.295161
0.0156408 -0.253626
-0.00110534 -0.26014
-0.00868958 -0.258927
-0.0269568 -0.308043
0.0230888 -0.306167
0.0207825 -0.293662
0.0169926 -0.283901
-0.0205899 -0.255877
0.0244286 -0.251866
-0.0142803 -0.300854
0.0148336 -0.265668
-0.0268285 -0.24853
-0.0117444 -0.26936
0.00394103 -0.287898
0.00332771 -0.263092
0.00236276 -0.262792
0.000862263 -0.262878
-0.00039206 -0.263125
-0.00134835 -0.263282
-0.00244407 -0.26354
-0.00713028 -0.276906
0.00799529 -0.277754
0.00431594 -0.263936
0.00456837 -0.266256
0.000730234 -0.271407
-0.000968698 -0.27201
-0.00441352 -0.266865
-0.00368814 -0.264371
-0.0137358 -0.276434
-0.0167513 -0.280111
-0.0191538 -0.284318
-0.0260782 -0.290564
-0.0413075 -0.310807
-0.0389261 -0.316869
0.0280203 -0.226212
0.00555608 -0.254536
-0.0228527 -0.239485
-0.0354735 -0.320548
0.0337336 -0.319942
0.0333742 -0.311624
0.0311251 -0.302249
0.0268991 -0.293832
0.0200216 -0.283324
0.0188181 -0.278562
-0.0281432 -0.240179
0.0319116 -0.234097
-0.0300954 -0.320451
-0.00741729 -0.296592
0.0295289 -0.243484
0.0201613 -0.312829
0.0334669 -0.327439
-0.0197975 -0.259622
0.00495374 -0.290382
0.00238594 -0.263527
0.00279497 -0.263876
0.00191171 -0.263146
0.00230117 -0.263242
0.00106312 -0.263124
0.00153573 -0.263091
5.60911e-05 -0.263282
0.000510251 -0.263211
-0.000611283 -0.263472
-0.000247188 -0.263399
-0.00142363 -0.263646
-0.00104062 -0.263517
-0.00202362 -0.264262
-0.00162864 -0.263898
-0.00229884 -0.27226
-0.00520456 -0.274021
-0.0098093 -0.275738
0.012755 -0.275387
0.00966994 -0.275699
0.00386433 -0.273866
0.00150898 -0.272778
0.00338632 -0.264541
0.00332884 -0.265479
0.00237242 -0.267583
0.0010889 -0.269133
-0.00164991 -0.269731
-0.00239174 -0.26819
-0.00302659 -0.266002
-0.00269416 -0.264965
-0.0138568 -0.270969
-0.0188644 -0.277226
-0.029635 -0.285496
-0.042262 -0.301654
-0.0509345 -0.322693
0.0175807 -0.146681
0.0149548 -0.240778
0.000968747 -0.254589
-0.0110027 -0.248235
-0.0206422 -0.158306
-0.0452401 -0.336266
0.0464863 -0.337832
0.0428997 -0.310651
0.026034 -0.286939
0.017588 -0.273581
0.00229673 -0.0646206
-0.0262113 -0.183937
-0.00384256 -0.061822
0.0226493 -0.173929
-0.0264061 -0.329482
0.0226975 -0.253991
0.0392072 -0.219745
0.0335854 -0.337486
-0.0379304 -0.226547
-0.0110143 -0.269805
0.0016069 -0.263841
0.00135862 -0.263436
0.000956931 -0.263346
0.000388016 -0.263421
-0.000168738 -0.263553
-0.000622565 -0.263762
-0.000918134 -0.264211
-0.00470576 -0.271127
-0.00976968 -0.270851
0.0083744 -0.271502
0.00287704 -0.271081
0.00159648 -0.265098
-0.000123162 -0.267893
-0.0019099 -0.268151
0.00159576 -0.269154
-0.00034529 -0.268471
-0.00109128 -0.265473
-0.00880606 -0.26805
0.00884905 -0.269354
-0.0147889 -0.267442
-0.0168014 -0.269985
-0.0207503 -0.271257
-0.0236582 -0.27534
-0.0301863 -0.277719
-0.036089 -0.283982
-0.0432052 -0.289966
-0.0513665 -0.299805
-0.0593598 -0.309851
0.0132125 -0.15544
0.00500522 -0.233842
-0.00470622 -0.239461
-0.0126248 -0.167379
-0.0619138 -0.335463
-0.059395 -0.3451
-0.055444 -0.352785
-0.0517128 -0.360569
-0.0406251 -0.355709
0.0430432 -0.357988
0.0520025 -0.360191
0.0565299 -0.353763
0.0597672 -0.344544
0.0619552 -0.332584
0.0574061 -0.317959
0.0518228 -0.303739
0.0458582 -0.291515
0.035786 -0.284835
0.0304974 -0.275685
0.024838 -0.273033
0.0208236 -0.271743
0.0147031 -0.268969
0.0184183 -0.0647775
-0.000609828 -0.117339
-0.0207896 -0.172461
-0.01867 -0.0634624
0.0171694 -0.162189
-9.91736e-05 -0.113961
-0.0279421 -0.349337
-0.0123962 -0.343419
0.0223898 -0.26205
0.0319869 -0.351783
-0.00808233 -0.283511
0.0183892 -0.340333
0.000762673 -0.264294
0.000688734 -0.264643
0.000895325 -0.263942
0.000983554 -0.263664
0.000953695 -0.263786
0.000989401 -0.263514
0.000887247 -0.263447
0.000946482 -0.263475
0.000728586 -0.263435
0.000526053 -0.263457
0.000631086 -0.263445
0.000306189 -0.263505
8.3558e-05 -0.263567
0.000194482 -0.263535
-0.000109616 -0.263648
-0.000282417 -0.263765
-0.000201018 -0.263704
-0.00038519 -0.263927
-0.000424184 -0.264178
-0.000415529 -0.264043
-0.000333327 -0.264534
-0.00014165 -0.265101
-0.000254181 -0.264788
-0.0102675 -0.266653
-0.0121039 -0.266899
0.0120426 -0.268401
0.0102206 -0.268131
-0.00680596 -0.270158
-0.00392771 -0.26706
0.00573712 -0.270101
0.0040371 -0.269848
0.00438612 -0.267977
0.000197516 -0.265815
-0.000193036 -0.266511
0.000500573 -0.267361
2.71486e-05 -0.266398
-0.00725014 -0.266241
0.0075518 -0.266805
-0.00516193 -0.266127
-0.00601888 -0.266153
0.00633339 -0.266718
0.00548756 -0.26669
-0.00322685 -0.265701
-0.00146149 -0.265781
-0.00237735 -0.265729
0.00363856 -0.266742
0.00281024 -0.266737
0.00196923 -0.266744
0.00266392 -0.267851
-0.00205779 -0.266558
0.00618727 -0.268053
-0.00581881 -0.26757
-0.00111587 -0.266932
0.00122394 -0.266414
0.00542058 -0.271912
-0.00787822 -0.272684
0.0115731 -0.270755
-0.0118516 -0.268554
-0.00102557 -0.264667
-0.000782342 -0.263942
-0.000410536 -0.263644
0.000101272 -0.263486
0.000684291 -0.263372
0.00119147 -0.263361
0.00145813 -0.263607
0.00182111 -0.264302
0.0211061 -0.323527
-0.00901316 -0.309037
-0.00159491 -0.106696
-0.000914902 -0.112846
0.0238317 -0.276584
0.0370344 -0.296553
0.0479359 -0.326372
0.0449578 -0.347031
-0.0395092 -0.339877
-0.0487962 -0.330563
-0.0227739 -0.216653
0.0242382 -0.2026
-0.0514559 -0.313388
-0.0347721 -0.292305
-0.0219074 -0.281099
-0.0159192 -0.273405
0.000628606 -0.270214
-0.00178886 -0.269612
-0.0338335 -0.22483
0.0350948 -0.217136
0.00358627 -0.253499
-0.00463184 -0.265182
-0.00374186 -0.269107
0.00358401 -0.268454
0.00508097 -0.264632
0.0024893 -0.275356
0.0141669 -0.279773
-0.0118293 -0.278854
-0.00285221 -0.274809
-0.00283854 -0.263877
-0.00199069 -0.263326
-0.000771444 -0.26326
9.19661e-05 -0.262988
0.00169473 -0.262776
0.00296302 -0.262876
0.00359815 -0.263474
-0.00700011 -0.275035
0.0186779 -0.305866
-0.0041868 -0.289355
-0.0219355 -0.307018
0.0251631 -0.245282
-0.017115 -0.253149
0.0199252 -0.288124
0.0226397 -0.300488
-0.00512736 -0.261324
0.00586284 -0.257692
-0.030217 -0.305238
-0.0167622 -0.2868
-0.0150906 -0.26498
0.014446 -0.265015
-0.00606421 -0.262888
-0.0109604 -0.264512
-0.00515818 -0.272565
0.00487707 -0.271782
0.010379 -0.263992
0.0065711 -0.262587
0.0122204 -0.285191
-0.00867054 -0.281484
-0.00212115 -0.262659
0.00054881 -0.261893
0.0045264 -0.286897
0.00593644 -0.275797
0.00660873 -0.286841
-0.00788742 -0.288928
0.00428374 -0.281887
-0.00288182 -0.278975
-0.00237681 -0.27834
0.000325809 -0.27921
-0.0105973 -0.287179
-0.0231892 -0.264223
0.00559072 -0.357052
-0.0115905 -0.310496
0.00366796 -0.325507
-0.000212323 -0.352365
0.00780103 -0.305349
-0.00546805 -0.356794
0.0335941 -0.250015
0.0166234 -0.292056
0.000402619 -0.352051
0.00169216 -0.318207
0.00789383 -0.28469
0.00813323 -0.137163
0.0194835 -0.159469
0.0106552 -0.131687
0.0315844 -0.189727
-0.00856759 -0.0713634
0.00062276 -0.0872791
0.00350643 -0.112727
-0.00160724 -0.111638
0.00634593 -0.133709
-0.0103806 -0.0864582
-0.00527266 -0.0920209
-0.0149742 -0.0691062
0.0106801 -0.106658
0.0184244 -0.124435
-0.0211138 -0.0553841
-0.0112751 -0.0835793
-0.0102769 -0.144191
-0.0108824 -0.134084
-0.0211909 -0.166397
-0.00368869 -0.114861
0.00868422 -0.071577
-0.000567823 -0.0875586
-0.0341097 -0.197987
-0.00928364 -0.141852
-3.34275e-05 -0.11639
0.0099333 -0.0887109
0.0149846 -0.0700321
0.00513041 -0.093816
0.0211185 -0.0561062
-0.010648 -0.107025
-0.0183558 -0.124909
0.0100737 -0.0871172
-0.00781937 -0.213729
0.00633759 -0.229739
0.00723553 -0.1961
0.00312865 -0.250908
0 0
0 0
-0.00660562 -0.100538
-0.0190276 -0.195055
-0.0141247 -0.228435
0.00846868 -0.205285
-0.00700076 -0.191225
-0.00704656 -0.22593
0.00704063 -0.0913562
0 0
-0.03815 -0.154823
-0.00394664 -0.249467
0.0157024 -0.218563
0.0196279 -0.181079
-0.0272094 -0.247989
-0.0277375 -0.249084
-0.00976969 -0.272782
-0.0423552 -0.227536
0.00618824 -0.294718
-0.0293979 -0.244539
-0.0351325 -0.229807
0.0356224 -0.235481
0.0228063 -0.255846
0.0377093 -0.236492
0.00653668 -0.277998
0.0429055 -0.222481
0.0372246 -0.220287
0.0335331 -0.236703
0.0323944 -0.201311
0.0330421 -0.200089
0.0199012 -0.169458
0.0104145 -0.140885
0.0304936 -0.197473
-0.0331618 -0.206314
-0.0236371 -0.179231
-0.0353586 -0.207439
-0.0141664 -0.150067
-0.032162 -0.206811
-0.0101859 -0.114085
-0.0197995 -0.156529
-0.0110735 -0.106248
-0.0248704 -0.189324
0.00363943 -0.0360533
0.00155891 -0.0898984
-0.011977 -0.134552
-0.0039957 -0.253278
-0.00323002 -0.25202
-0.00972725 -0.244419
-0.000277925 -0.254494
-0.017549 -0.236422
-0.0041744 -0.253464
0.00226613 -0.253839
0.00715036 -0.249937
0.0116128 -0.237324
0.00433474 -0.248792
0.0204443 -0.225433
0.00993281 -0.249468
0.00708784 -0.105425
0.00923665 -0.0972115
0.0182707 -0.144375
-0.00432118 -0.0349562
0.0238378 -0.175187
0.00857684 -0.125882
-0.00363122 -0.0854865
-0.0282082 -0.24651
-0.0200265 -0.25853
-0.00876898 -0.273041
-0.0134842 -0.26763
0.034297 -0.231142
0.0217231 -0.255288
0.00794761 -0.273601
0.00886549 -0.272271
-0.0313951 -0.237883
-0.0241073 -0.253531
-0.0174735 -0.262761
-0.0212937 -0.257557
-0.0240214 -0.252664
-0.0249191 -0.249036
-0.0284279 -0.243456
-0.0196652 -0.253973
-0.0232197 -0.24779
-0.0316161 -0.232387
-0.0189278 -0.259566
0.0254791 -0.24806
0.022219 -0.251661
0.0216131 -0.25472
0.017639 -0.260025
0.0146182 -0.260844
0.0199353 -0.258551
-0.0154216 -0.256531
-0.0170171 -0.258011
-0.0158879 -0.260909
-0.0127644 -0.261505
-0.0129018 -0.256671
-0.0111798 -0.259097
-0.00901294 -0.260653
-0.00689018 -0.260288
0.00511045 -0.259225
0.00219697 -0.259176
0.0017536 -0.260336
-0.000128402 -0.261103
-0.00335789 -0.260776
0.00219633 -0.26126
0.0147088 -0.258535
0.0177639 -0.25484
0.0133422 -0.256976
0.0206686 -0.250158
0.0107382 -0.256061
0.0088093 -0.258574
0.0113211 -0.261263
0.00750922 -0.260055
0.00455094 -0.261157
0.00567305 -0.262064
0.00256883 -0.261824
0.00740612 -0.260934
0.00883621 -0.261272
0.0122606 -0.0185553
0.0120178 -0.0476091
0.0093787 -0.0247802
0.0126683 -0.0699479
0 0
0 0
0.0150185 -0.0149895
0.0254396 -0.0412556
0.0204269 -0.0516018
0.0230634 -0.0300203
-0.0261887 -0.146458
-0.0316262 -0.159224
-0.0231635 -0.0297449
-0.020779 -0.050574
-0.0254404 -0.0407961
-0.0139129 -0.0669115
0.0262988 -0.145823
0.0316453 -0.158375
-0.0151125 -0.0149225
-0.00973207 -0.0243527
-0.0128871 -0.0462781
-0.0123519 -0.018372
-0.0297811 -0.215257
-0.0150339 -0.244078
-0.016434 -0.247972
-0.0105839 -0.250698
-0.01726 -0.24356
-0.00261892 -0.254108
-0.0236564 -0.22934
-0.020555 -0.246982
-0.0136488 -0.252525
-0.0278181 -0.22702
-0.0303948 -0.227587
-0.0262012 -0.238561
-0.0322994 -0.216938
-0.0273021 -0.211658
-0.0226533 -0.170113
-0.0296437 -0.19809
-0.0269959 -0.188566
0.0247035 -0.175915
0.0274206 -0.187422
0.0192337 -0.159463
0.0322953 -0.207111
0.0277302 -0.197856
0.0307999 -0.228047
0.032595 -0.218458
0.0301268 -0.213605
0.0340445 -0.225816
0.026651 -0.214974
0.0273543 -0.236365
0.0290957 -0.239865
0.0170816 -0.249976
0.0118545 -0.251702
0.0110975 -0.253877
0.0107634 -0.250646
0.00470539 -0.253672
0.00585381 -0.255842
0.0221509 -0.245037
0.022286 -0.232597
0.0170364 -0.243456
0.0235746 -0.238296
0.0286957 -0.245113
0.0260095 -0.250172
0.0316915 -0.237796
0.016005 -0.26367
0.028636 -0.244131
0.0240221 -0.253377
0.0183669 -0.261174
-0.00293487 -0.258716
-0.00711592 -0.257952
-0.0047894 -0.259746
-0.0113057 -0.255662
0.00064201 -0.257652
-0.00184768 -0.254951
-0.00723497 -0.254865
5.52648e-05 -0.25605
0.00386166 -0.332994
-0.00575729 -0.332137
-0.00405478 -0.344171
-0.0046525 -0.312047
-0.011656 -0.326251
-0.00920754 -0.350178
0.00653634 -0.346152
0.0132533 -0.338792
0.00963717 -0.323077
0.0114776 -0.28695
0.00406344 -0.301443
0.00858347 -0.306512
-0.00126594 -0.298005
0.0180317 -0.312479
0.0187808 -0.276303
0.0146233 -0.274253
0.0395603 -0.205785
0.0371758 -0.173524
0.032975 -0.184464
0.0232572 -0.175586
0.0280319 -0.168323
0.0418949 -0.194668
-0.0371137 -0.174494
-0.0412713 -0.211434
-0.033991 -0.18971
-0.0290206 -0.173239
-0.026243 -0.184828
-0.0412315 -0.195587
-0.0356871 -0.238711
-0.0361991 -0.241889
-0.0259972 -0.253806
-0.0457676 -0.228358
-0.0345197 -0.250256
-0.0151546 -0.274605
-0.0179089 -0.264777
-0.03561 -0.236149
-0.0398988 -0.226641
-0.000476515 -0.288694
0.00709364 -0.298971
-0.00123496 -0.284499
0.0148193 -0.3151
0.0141527 -0.309137
-0.00247231 -0.281463
-0.0105674 -0.270582
-0.00891424 -0.276463
0.000427814 -0.295306
-0.0287534 -0.245643
-0.0326055 -0.237629
-0.0328116 -0.238421
-0.0329409 -0.234627
-0.0346141 -0.226781
-0.0363987 -0.22803
-0.0336768 -0.237749
-0.0191302 -0.259104
-0.0234015 -0.253574
0.0140371 -0.267632
0.00707742 -0.280219
0.0151198 -0.269395
-0.00182213 -0.293542
0.0227089 -0.257998
0.0228791 -0.254366
0.0148539 -0.26506
0.0365429 -0.240853
0.043031 -0.232296
0.0416802 -0.229651
0.0412826 -0.241474
0.0465753 -0.225102
0.0409095 -0.220824
0.040493 -0.227259
0.0310752 -0.247342
0.0277435 -0.256484
0.0377781 -0.227462
0.0363832 -0.228828
0.0345074 -0.235946
0.0360644 -0.21838
0.0357977 -0.226679
0.029385 -0.24439
0.0294749 -0.244833
0.0388495 -0.227849
0.0381312 -0.219878
0.0383534 -0.210973
0.0391784 -0.209453
0.0324611 -0.196874
0.0246902 -0.180984
0.0373353 -0.211042
0.0361499 -0.210373
0.0357489 -0.211354
0.0345456 -0.209949
0.0269642 -0.187148
-0.0351241 -0.204808
-0.0415392 -0.216026
-0.0396979 -0.216946
-0.0381711 -0.217969
-0.0281286 -0.190565
-0.0364532 -0.216221
-0.0357911 -0.218835
-0.0293749 -0.194839
-0.0343983 -0.216253
-0.0159885 -0.263533
-0.00992107 -0.27141
-0.0143812 -0.265999
-0.0148572 -0.265735
-0.00793533 -0.274146
-0.0200238 -0.258986
0.00734473 -0.275094
8.73045e-05 -0.284882
-0.000933377 -0.287957
0.00155435 -0.281966
-0.00571709 -0.292382
-0.0084003 -0.301666
0.0149506 -0.264228
0.0151982 -0.264022
0.00849436 -0.272686
0.0152505 -0.263758
0.00231928 -0.28068
0.0222523 -0.254462
0.0264944 -0.248676
0.0187264 -0.25975
0.00505806 -0.277132
0.0127395 -0.267527
0.0198791 -0.259097
0.0234194 -0.25369
-0.00115021 -0.284923
0.00889742 -0.272503
0.0108063 -0.270393
0.00398013 -0.278314
-0.00213622 -0.281169
0.00432234 -0.288953
-0.0022841 -0.280828
0.0120392 -0.298751
0.0113426 -0.29675
-0.00181121 -0.281057
-0.00264181 -0.280684
0.00662937 -0.31384
0.0115424 -0.333407
0.0138669 -0.323642
0.0048296 -0.343112
0.0128857 -0.348311
0.0203368 -0.330983
-0.0012664 -0.305448
-0.00897487 -0.330975
-0.000786582 -0.336032
-0.00335903 -0.318434
-0.00646438 -0.346357
-0.0086571 -0.295046
-0.015529 -0.320455
-0.0130186 -0.339179
-0.0264601 -0.279696
-0.0215936 -0.306166
-0.0163611 -0.288902
-0.0200923 -0.329874
-0.0279985 -0.318331
0.0256337 -0.346441
0.0221411 -0.35642
0.0291337 -0.360051
-0.0367631 -0.302864
-0.0428026 -0.278126
0.0361522 -0.363408
0.0271627 -0.338686
0.0324774 -0.276561
0.0237397 -0.274
0.0242419 -0.295893
0.0201333 -0.329608
0.0280017 -0.318114
-0.0209602 -0.34624
-0.0268679 -0.359176
-0.0191381 -0.357764
-0.0342438 -0.362595
0.0360965 -0.302869
0.0437288 -0.278482
-0.0195963 -0.332037
0.0408307 -0.288179
0.0454666 -0.28556
0.0404084 -0.282289
0.0490532 -0.288481
0.0125709 -0.265814
0.0107472 -0.265581
0.0365063 -0.279776
0.0362975 -0.290865
0.04131 -0.294326
0.0488366 -0.297698
0.0563598 -0.299611
0.0535685 -0.293318
0.0599067 -0.304862
0.00895373 -0.265408
0.00772021 -0.265317
0.0444663 -0.30029
0.0597355 -0.325456
0.0674591 -0.327377
0.0656504 -0.319907
0.0686815 -0.334463
0.00649848 -0.265257
0.0056597 -0.265232
0.0623565 -0.31222
0.0522789 -0.322685
0.0550134 -0.329917
0.060718 -0.338765
0.0665895 -0.34693
0.0681561 -0.341061
0.0648581 -0.35193
0.0632016 -0.364301
0.0661603 -0.36132
0.0542774 -0.33587
0.0542084 -0.356978
0.0577842 -0.362932
0.0602927 -0.359833