<?xml version="1.0"?>
<VTKFile type="UnstructuredGrid">
  <UnstructuredGrid>
  <Piece NumberOfPoints="3487"  NumberOfCells="1698">
    <Points>
      <DataArray type="Float64" NumberOfComponents="3" format="ascii">
39.9741 48.932 0
60.026 48.9319 0
40.6344 49.0626 0
41.2963 49.1843 0
41.9598 49.297 0
42.6247 49.4008 0
43.291 49.4956 0
43.9584 49.5814 0
44.627 49.6583 0
45.2965 49.7261 0
45.9669 49.7849 0
46.6379 49.8347 0
47.3096 49.8754 0
47.9818 49.9071 0
48.6544 49.9297 0
49.3272 49.9433 0
50.0001 49.9478 0
50.673 49.9433 0
51.3458 49.9297 0
52.0183 49.9071 0
52.6905 49.8754 0
53.3622 49.8346 0
54.0333 49.7848 0
54.7036 49.726 0
55.3731 49.6582 0
56.0417 49.5814 0
56.7091 49.4955 0
57.3754 49.4007 0
58.0403 49.2969 0
58.7038 49.1842 0
59.3657 49.0625 0
39.9992 49.9476 0
39.9977 49.6936 0
39.993 49.4397 0
39.9851 49.1858 0
19.9854 69.9338 0
39.9973 50.2092 0
39.992 50.4708 0
39.9782 50.8493 0
39.9574 51.2273 0
39.9144 51.7737 0
39.8566 52.3186 0
39.7464 53.1039 0
39.6052 53.8843 0
39.3464 55.0022 0
39.0238 56.1037 0
38.7512 56.888 0
38.4463 57.6605 0
38.1096 58.4196 0
37.7416 59.1642 0
37.1551 60.2131 0
36.5067 61.2249 0
35.7986 62.1959 0
-0.00776313 49.9269 0
17.375 69.7614 0
14.8094 69.2499 0
12.3325 68.408 0
9.9866 67.25 0
7.81193 65.7959 0
11.5059 31.8521 0
0.193255 47.1074 0
0.790045 44.3445 0
1.77073 41.6936 0
0 0 0
0.135598 3.72594 0
0.551103 7.43224 0
1.24335 11.0975 0
2.20825 14.7004 0
3.1098 17.3556 0
50 -0.0497868 0
5.1116 0 0
10.2232 0 0
15.3348 0 0
100 0 0
57.3913 -0.0482255 0
64.7826 -0.0425274 0
72.1727 -0.0306328 0
88.4942 31.8519 0
99.8644 3.72592 0
99.4489 7.43216 0
98.7567 11.0975 0
97.7918 14.7004 0
96.8902 17.3556 0
100.008 49.9268 0
99.8068 47.1074 0
99.21 44.3445 0
98.2293 41.6935 0
80.0146 69.9337 0
99.8377 52.5373 0
99.3282 55.1033 0
98.488 57.5807 0
97.3316 59.9274 0
95.8788 62.1029 0
60.0009 49.9474 0
77.5039 69.7768 0
75.0326 69.3061 0
72.64 68.529 0
70.3638 67.4578 0
68.878 66.5545 0
67.4762 65.5255 0
66.1691 64.3786 0
64.9665 63.1226 0
64.2014 62.1958 0
63.4933 61.2248 0
62.8449 60.213 0
62.2584 59.1641 0
61.5537 57.6604 0
60.9763 56.1035 0
60.6537 55.0022 0
60.3948 53.8842 0
60.2536 53.1038 0
60.0024 49.6935 0
60.007 49.4395 0
60.0149 49.1857 0
52.8214 30.1983 0
26.5186 37.0207 0
40.3249 24.3194 0
24.9229 22.567 0
71.9478 22.5996 0
72.7073 44.0892 0
54.8072 24.1463 0
15.3111 47.569 0
38.3621 49.5623 0
23.6262 65.4023 0
7.70478 7.75763 0
91.937 7.73634 0
29.1776 57.0365 0
37.1885 52.0362 0
28.09 47.3382 0
29.7295 48.2992 0
71.5145 46.8222 0
30.9886 49.1973 0
70.5126 48.3013 0
31.6346 45.7796 0
30.8875 47.2375 0
70.0638 46.8093 0
68.9852 45.1299 0
31.294 50.2933 0
30.9082 51.5182 0
28.191 49.2979 0
45.3057 41.405 0
53.8458 41.0264 0
56.0309 40.5752 0
73.1254 47.58 0
70.1114 49.5432 0
68.3373 42.5554 0
32.3065 42.8853 0
26.1368 45.82 0
27.6753 44.8213 0
30.3005 43.4454 0
70.4176 42.7559 0
72.6766 46.0881 0
44.8468 43.1979 0
51.4312 42.1044 0
55.4121 42.691 0
32.452 49.2316 0
68.5523 49.7776 0
39.4723 42.1898 0
35.4351 43.5089 0
32.8937 46.6776 0
33.5779 48.4268 0
67.1029 48.3728 0
67.9833 46.6091 0
65.0777 43.1726 0
60.424 41.8276 0
32.3716 51.5526 0
28.2213 51.1592 0
41.7721 37.4098 0
46.8209 37.8149 0
52.0502 39.9886 0
58.6836 39.3582 0
26.6119 52.0594 0
24.3058 50.4944 0
74.2224 50.0988 0
71.1609 50.7977 0
69.1369 52.377 0
67.9118 52.5088 0
59.77 36.4768 0
66.5102 40.7983 0
34.1008 41.1745 0
36.0149 35.9068 0
23.1865 47.3205 0
21.6452 43.4173 0
28.3474 41.9274 0
74.3183 44.8471 0
76.6324 48.7065 0
43.0516 43.7861 0
46.2669 43.0716 0
49.9679 43.1196 0
48.4319 42.9024 0
51.7636 44.1574 0
54.0896 44.2733 0
52.9069 44.5688 0
56.2749 43.8221 0
33.8833 49.5229 0
33.7859 51.038 0
66.5324 51.8549 0
66.5933 49.862 0
41.829 44.0239 0
40.6993 43.7617 0
38.4562 43.3699 0
37.138 43.9762 0
35.3438 45.687 0
34.325 46.9688 0
66.0244 46.6933 0
65.0212 45.4176 0
63.1942 43.6604 0
61.7087 43.2099 0
58.8818 43.6223 0
57.5417 43.9382 0
33.4001 52.2629 0
29.1742 53.8817 0
40.8254 31.1289 0
50.8859 36.1287 0
55.6725 34.4101 0
23.5697 53.6131 0
76.9103 52.0805 0
70.2312 53.4872 0
66.4016 53.097 0
65.4841 35.2908 0
30.9394 34.7064 0
19.4514 47.4476 0
26.1205 40.162 0
72.0172 34.2252 0
72.0592 41.5151 0
77.4836 45.4549 0
43.1652 45.2285 0
45.808 44.8645 0
48.7642 44.9554 0
51.4436 45.5841 0
53.7697 45.7 0
56.2193 45.5206 0
34.9119 50.2332 0
65.0831 50.4501 0
40.8129 45.2041 0
38.365 45.5482 0
36.0281 47.4363 0
64.1408 47.1814 0
61.6521 45.4552 0
58.8264 45.3208 0
36.0723 52.5073 0
34.9224 53.2727 0
33.5081 53.7872 0
31.9103 55.5834 0
26.1075 59.0648 0
23.01 57.4729 0
32.3835 22.8162 0
47.034 26.8155 0
63.1494 23.1676 0
20.0014 55.1844 0
80.1772 54.4494 0
75.7896 55.9521 0
71.9277 56.2984 0
69.0823 55.6138 0
65.7679 54.1054 0
64.0924 53.9467 0
68.1673 29.1233 0
26.761 30.2087 0
17.2489 51.916 0
14.6026 42.6011 0
22.3881 34.1919 0
84.8884 47.0302 0
84.7094 52.1921 0
75.1793 38.0697 0
81.2117 44.0927 0
42.4552 46.5593 0
41.4144 46.3679 0
44.9644 46.4045 0
43.6779 46.3216 0
47.7356 46.3457 0
46.3846 46.2783 0
50.62 46.6591 0
49.2717 46.563 0
53.0511 47.0543 0
51.7633 47.0705 0
55.514 46.6668 0
54.2339 46.7588 0
58.0627 46.621 0
56.7809 46.783 0
36.3738 48.7593 0
36.0281 49.762 0
35.9307 51.2772 0
63.3815 52.2108 0
63.8262 51.1982 0
63.8871 49.2051 0
63.8369 48.3016 0
40.2847 46.1058 0
39.369 46.286 0
38.0507 46.8922 0
37.3926 47.4774 0
62.8337 47.0259 0
62.0183 46.7002 0
60.5327 46.2499 0
59.4029 46.305 0
38.0637 52.7054 0
36.1803 54.0317 0
34.0817 56.8979 0
29.6093 59.9763 0
22.8867 61.5357 0
21.7313 15.4891 0
39.9586 16.3424 0
48.9006 11.6325 0
56.9478 17.0768 0
76.6536 15.7328 0
15.6474 57.2408 0
84.5109 57.677 0
73.4004 59.6463 0
66.5136 55.7677 0
62.4518 53.7146 0
82.9387 7.8714 0
79.7532 22.7039 0
16.3102 7.95144 0
18.3385 22.4142 0
10.7269 46.939 0
16.5706 36.1352 0
15.5061 30.5198 0
89.3974 49.8194 0
83.3262 31.3672 0
81.5805 39.439 0
41.927 47.461 0
44.2545 47.7354 0
46.8921 47.8858 0
49.5914 48.0494 0
52.2274 48.1293 0
54.7954 48.0212 0
57.3574 47.7673 0
37.3927 49.8033 0
37.9221 51.4752 0
62.1855 50.9659 0
62.5799 49.0497 0
39.9705 47.4499 0
38.3966 48.2153 0
38.5123 48.9854 0
61.7646 48.6844 0
61.7143 47.8206 0
59.769 47.5502 0
38.8916 51.2343 0
61.3455 51.1694 0
39.2013 53.0143 0
38.4677 53.5753 0
38.177 54.6849 0
37.0271 55.4503 0
36.5253 57.2247 0
34.8794 58.7502 0
33.3747 60.6101 0
30.7614 62.7248 0
28.0044 64.8808 0
27.1641 7.90913 0
38.6542 8.47492 0
59.8784 8.7022 0
71.7717 7.99583 0
19.2517 64.8525 0
14.9542 63.1229 0
10.7533 60.3385 0
6.30448 57.2984 0
6.00942 51.3636 0
94.2233 52.4618 0
93.3047 57.5169 0
89.3187 60.8585 0
84.5652 63.3664 0
79.4572 65.0329 0
74.5603 64.0594 0
70.2545 62.7717 0
66.8198 61.3127 0
65.209 58.6378 0
62.7106 57.3072 0
62.0695 55.777 0
61.7787 54.6673 0
61.0678 52.9314 0
93.4838 14.58 0
89.7947 20.7799 0
86.1175 25.1561 0
6.26275 14.5723 0
13.0034 24.6154 0
9.79049 20.7676 0
5.76755 45.7931 0
5.65718 40.8473 0
12.2941 34.8692 0
94.2203 47.3403 0
88.1227 37.2273 0
93.3539 42.6066 0
41.0912 48.227 0
40.4302 48.1008 0
42.1321 48.4184 0
43.4631 48.6169 0
42.7963 48.5266 0
44.7497 48.6999 0
46.0895 48.8265 0
45.4188 48.7722 0
47.4405 48.894 0
48.7851 48.9483 0
48.1125 48.9302 0
50.1334 49.0444 0
51.479 49.0263 0
50.8063 49.0444 0
52.7668 49.0101 0
54.1094 48.9196 0
53.4387 48.9739 0
55.3896 48.8276 0
56.7255 48.665 0
56.0587 48.7553 0
58.0073 48.503 0
59.3325 48.2686 0
58.6715 48.3947 0
39.3773 51.6859 0
39.3269 52.2315 0
60.9421 52.1485 0
60.8917 51.6029 0
38.0164 50.5651 0
39.136 49.7473 0
61.7902 50.1567 0
61.8148 49.588 0
60.9749 49.7914 0
39.5144 48.281 0
39.1705 48.4002 0
60.9492 48.3588 0
60.4624 48.2134 0
39.4716 50.7758 0
60.4965 50.7937 0
39.4925 50.1359 0
39.4889 50.3975 0
60.4791 50.4154 0
60.4756 50.1538 0
39.6427 49.5589 0
39.6302 49.0512 0
39.6397 49.305 0
60.5002 49.585 0
60.5033 49.3311 0
60.5128 49.0773 0
60.9995 49.2227 0
39.2863 49.1703 0
60.9502 50.3601 0
38.9858 50.3242 0
60.8989 47.495 0
39.0547 47.63 0
62.6301 49.9532 0
37.0469 50.8061 0
61.7408 51.9787 0
38.7973 52.1444 0
58.6392 47.6053 0
56.0756 47.9293 0
53.5152 48.1131 0
50.9396 48.1455 0
48.2431 47.9533 0
45.541 47.8183 0
42.9679 47.6524 0
40.8862 47.2696 0
89.1468 44.9661 0
10.9274 41.0864 0
13.2818 16.2372 0
85.8814 16.4489 0
63.1627 55.4505 0
68.9067 58.6298 0
78.9296 60.0427 0
89.2774 55.1074 0
11.7823 53.0514 0
19.2487 59.8718 0
66.7236 15.878 0
30.7469 15.5903 0
26.3724 62.3039 0
32.1722 58.1423 0
35.0304 54.7971 0
37.3301 53.2664 0
62.5297 48.1462 0
37.7384 48.8005 0
75.9588 28.8083 0
20.494 28.7125 0
47.913 19.4339 0
60.1666 45.0048 0
63.1376 45.9056 0
37.0467 46.1544 0
39.6832 44.9419 0
65.144 48.4571 0
65.0222 52.4431 0
34.8144 51.7484 0
35.0093 48.7181 0
57.4862 45.6367 0
54.9524 45.4044 0
52.5869 45.9956 0
50.3003 45.1727 0
47.2282 44.7382 0
44.3878 44.9907 0
41.9426 45.4663 0
74.349 42.8484 0
80.2581 49.0523 0
17.9977 43.4994 0
21.3194 50.9638 0
34.4283 29.845 0
59.9947 30.4009 0
67.781 53.751 0
73.393 53.1961 0
54.4647 38.9106 0
46.5052 33.0646 0
26.2457 55.5683 0
31.9858 52.7775 0
69.7697 40.1815 0
30.9723 40.5512 0
57.5972 42.2398 0
63.2508 41.4153 0
66.9048 44.9296 0
33.6408 45.2197 0
37.2292 41.798 0
41.7153 42.5815 0
68.0427 51.2668 0
32.7574 50.3277 0
53.2269 43.1421 0
49.6356 41.0666 0
74.2876 46.8459 0
25.7222 43.3033 0
71.9633 48.3142 0
26.5514 48.3369 0
69.0619 48.2885 0
32.1465 48.1356 0
71.0657 45.3302 0
29.6284 46.3395 0
29.8306 50.2589 0
88.1665 34.5568 0
96.8842 39.2076 0
91.3066 35.945 0
92.2276 38.8162 0
96.0832 38.0422 0
88.4932 40.9762 0
3.11578 39.2076 0
11.8536 33.3204 0
9.99485 35.2144 0
3.91685 38.0423 0
8.31679 37.7308 0
11.6878 37.2225 0
11.3968 22.6917 0
10.9764 26.5619 0
9.36989 24.6387 0
11.8478 29.065 0
4.15925 19.9556 0
5.35329 22.4921 0
8.23895 22.8618 0
11.536 18.5021 0
13.1423 20.4265 0
8.02642 17.6703 0
6.97468 20.3617 0
5.21073 17.2636 0
6.68811 24.957 0
7.78152 26.7579 0
4.23541 14.6364 0
9.77207 15.405 0
87.9562 22.9682 0
90.4227 24.6448 0
88.5841 26.8319 0
91.5537 22.8679 0
95.8408 19.9555 0
94.6467 22.492 0
87.7355 29.385 0
[...]
    <PointData>
      <DataArray type="Float64" NumberOfComponents="2" Name="Displacement" format="ascii">
-0.000132266 -0.0525006
0.000209748 -0.0526307
-1.94296e-05 -0.0524229
6.06948e-05 -0.0523476
0.000103518 -0.0522959
0.000133264 -0.0522529
0.000151035 -0.052221
0.000162041 -0.0521985
0.000165611 -0.0521796
0.000164586 -0.0521661
0.000158941 -0.0521577
0.000150046 -0.0521535
0.0001378 -0.05215
0.000123343 -0.0521492
0.000106861 -0.0521509
8.92152e-05 -0.0521547
7.05299e-05 -0.0521584
5.16212e-05 -0.0521637
3.2914e-05 -0.0521709
1.49867e-05 -0.05218
-1.51678e-06 -0.0521894
-1.62614e-05 -0.0522013
-2.85267e-05 -0.0522162
-3.78462e-05 -0.0522347
-4.28107e-05 -0.0522549
-4.36347e-05 -0.0522809
-3.86889e-05 -0.0523135
-2.75386e-05 -0.052354
-2.70434e-06 -0.0523991
3.30932e-05 -0.0524595
0.000100675 -0.0525428
-0.000848437 -0.0524187
-0.000681539 -0.0524227
-0.000515798 -0.0524322
-0.00034434 -0.0524564
-0.014649 -0.0662158
-0.0010112 -0.0524216
-0.00117466 -0.0524277
-0.00141347 -0.052441
-0.00165497 -0.0524599
-0.00200637 -0.0524968
-0.00236294 -0.0525446
-0.00288721 -0.0526339
-0.00341928 -0.0527465
-0.00419845 -0.052952
-0.00498424 -0.0532067
-0.00555166 -0.0534209
-0.00611687 -0.0536609
-0.00667677 -0.053928
-0.00722901 -0.0542194
-0.0080091 -0.0546829
-0.00876376 -0.055193
-0.009485 -0.0557474
-0.00776313 -0.0731109
-0.0145224 -0.0675119
-0.0142499 -0.0686639
-0.0138684 -0.0696597
-0.013401 -0.0705022
-0.012881 -0.0712037
0.00949315 -0.0457767
-0.00650501 -0.0729279
-0.00500456 -0.0724538
-0.0032448 -0.0716406
0 0
-0.00367157 -0.00333516
-0.00519799 -0.00554677
-0.00542441 -0.00733696
-0.00454643 -0.00951529
-0.00332822 -0.01162
-4.53803e-05 -0.0497868
0 0
0 0
0 0
0 0
0.00287868 -0.0482255
0.00579006 -0.0425274
0.00754358 -0.0306328
-0.00940058 -0.0458874
0.0036855 -0.00332988
0.00521992 -0.00556566
0.00544979 -0.00736665
0.00457443 -0.00955446
0.00335611 -0.0116604
0.00778313 -0.0731688
0.00652469 -0.0729845
0.00503334 -0.0725087
0.00326795 -0.071706
0.0146384 -0.0663076
0.00877812 -0.0732021
0.00963448 -0.0730999
0.010396 -0.0729211
0.0110778 -0.0726448
0.0117161 -0.0722982
0.000900511 -0.0525525
0.0145941 -0.0649421
0.0143565 -0.0634842
0.0139033 -0.0619652
0.0132257 -0.0604278
0.0126201 -0.0593785
0.0119076 -0.0583561
0.0110889 -0.0573795
0.0101758 -0.0564603
0.0094919 -0.0558687
0.00877279 -0.0553165
0.00802039 -0.0548079
0.0072426 -0.0543457
0.00613533 -0.0537914
0.00500687 -0.0533344
0.0042242 -0.0530826
0.00345008 -0.0528797
0.00292042 -0.0527673
0.000738553 -0.0525583
0.00057749 -0.0525691
0.000407671 -0.0525932
-0.00100362 -0.0507925
0.0043869 -0.0505624
0.00347062 -0.0487184
0.00582947 -0.0394347
-0.00589977 -0.041784
-0.00092284 -0.0547876
-0.00179876 -0.0499693
-0.00418299 -0.0618913
-0.000672361 -0.0532423
-0.012071 -0.0639884
-0.00389582 -0.00709504
0.00382744 -0.00722872
-0.00633047 -0.0593133
-0.0022586 -0.0541003
-0.000679959 -0.0561476
-0.000948647 -0.0560652
0.000369244 -0.0558962
-0.00125978 -0.0559943
0.00102335 -0.0562597
0.000587225 -0.054483
-0.000220372 -0.0552673
0.000156935 -0.0554794
-0.000800689 -0.0544896
-0.00183679 -0.0562762
-0.00261459 -0.0568491
-0.00176517 -0.0570259
0.00088736 -0.0518169
-0.000697991 -0.0518708
-0.00117102 -0.0518622
0.00106323 -0.0567588
0.00165448 -0.0566342
-0.00198296 -0.0533131
0.00189553 -0.0532297
-0.000176172 -0.0559185
0.000620599 -0.0549855
0.00157597 -0.0537865
-0.00181313 -0.0536969
0.000153094 -0.0558525
0.00076488 -0.0519374
-0.000199725 -0.0519152
-0.000793592 -0.0520014
-0.00108334 -0.0554838
0.00155761 -0.0561534
0.0016877 -0.0521038
0.00164542 -0.0529139
0.00027347 -0.0544755
-0.000523613 -0.0548299
0.000612218 -0.0551635
-0.000181342 -0.0548176
-0.00173227 -0.0530361
-0.0017085 -0.0521763
-0.00243078 -0.0562437
-0.00284474 -0.0578126
0.00211147 -0.0513681
0.000840096 -0.05154
-0.000399998 -0.0517872
-0.00188631 -0.0517748
-0.00368635 -0.0588575
-0.00326466 -0.0590993
0.00273316 -0.058413
0.00255252 -0.0575313
0.0031723 -0.0572628
0.0030842 -0.0567601
-0.00258465 -0.0513228
-0.00261232 -0.0524584
0.00248305 -0.0524088
0.00363009 -0.0508012
-0.00168511 -0.0577593
0.000284831 -0.0556088
0.00216706 -0.05333
-0.000257501 -0.0555886
0.00247643 -0.0586208
0.000915559 -0.0520126
0.000578683 -0.0519272
4.62169e-05 -0.0519566
0.000274069 -0.0519306
-0.000168836 -0.0520263
-0.000436939 -0.0520603
-0.000278145 -0.052058
-0.000758161 -0.0520934
-0.00107209 -0.0550445
-0.00194851 -0.0554987
0.00251371 -0.055966
0.0013561 -0.0554421
0.00101562 -0.0520889
0.00119559 -0.0521628
0.00151575 -0.0523864
0.00143464 -0.0527085
0.000855863 -0.053505
0.000255845 -0.0541494
-0.000307884 -0.0542919
-0.000902537 -0.0536502
-0.00149914 -0.0528343
-0.001523 -0.0525143
-0.00111794 -0.0522352
-0.000893497 -0.0521581
-0.00273783 -0.0559838
-0.00433203 -0.0584012
0.00306631 -0.0501417
-0.000217931 -0.0514674
-0.00170716 -0.0512172
-0.00524332 -0.0609001
0.00449189 -0.0605234
0.00401958 -0.0581094
0.00327288 -0.0562067
-0.00403181 -0.0506013
0.00477201 -0.0497914
-0.00279807 -0.0594305
0.00289532 -0.052524
-0.00523225 -0.0491177
-0.00230099 -0.0532693
0.000769017 -0.0568993
0.00066821 -0.0520867
0.000472673 -0.0520214
0.000171614 -0.052036
-8.03522e-05 -0.0520855
-0.000273217 -0.0521188
-0.000494294 -0.0521744
-0.00135594 -0.0548255
0.00152299 -0.0549943
0.000866091 -0.0522596
0.000917068 -0.0527206
0.000170689 -0.0537377
-0.00021763 -0.0538558
-0.000887472 -0.052841
-0.000743649 -0.0523458
-0.00263555 -0.0547454
-0.00322397 -0.0554663
-0.00369434 -0.0562893
-0.00504552 -0.0575155
-0.00802602 -0.0614751
-0.00757279 -0.0626444
0.00549179 -0.0446431
0.00109019 -0.0503014
-0.00448627 -0.0472836
-0.00691478 -0.0633399
0.00657633 -0.0632176
0.00648736 -0.0616173
0.00603696 -0.0597972
0.00520655 -0.0581547
0.00386023 -0.056099
0.00362231 -0.0551692
-0.00550118 -0.0474449
0.0062166 -0.0462327
-0.00588591 -0.0632869
-0.00149382 -0.0585232
0.00573383 -0.0480986
0.00396951 -0.0617468
0.0065511 -0.0646474
-0.00385621 -0.0513153
0.00098477 -0.0573511
0.000485676 -0.0521768
0.000568548 -0.0522497
0.000385923 -0.0520941
0.00046573 -0.0521161
0.000213112 -0.052086
0.000308848 -0.0520809
9.53869e-06 -0.0521169
0.000101378 -0.0521027
-0.000126265 -0.0521561
-5.2152e-05 -0.0521406
-0.000291818 -0.0521944
-0.000213392 -0.0521665
-0.000416772 -0.0523249
-0.000335446 -0.0522478
-0.000417345 -0.0539119
-0.000980964 -0.0542606
-0.00187396 -0.0546035
0.00244308 -0.054542
0.00184577 -0.0545977
0.000720449 -0.0542296
0.000263579 -0.0540124
0.000685963 -0.0523841
0.000675531 -0.0525718
0.000489704 -0.0529887
0.000240289 -0.0532949
-0.00034997 -0.0534111
-0.000494026 -0.0531081
-0.000617132 -0.0526755
-0.000551098 -0.0524685
-0.00265429 -0.0536807
-0.00363179 -0.0549069
-0.00573306 -0.0565315
-0.00820338 -0.059695
-0.00990782 -0.0637984
0.00343527 -0.028905
0.00295267 -0.0475158
0.000192422 -0.0502557
-0.00217297 -0.049002
-0.00404457 -0.0311928
-0.00883031 -0.0664051
0.00907069 -0.0667142
0.00833314 -0.0614495
0.00503187 -0.0568113
0.00337937 -0.0541965
0.000471733 -0.012746
-0.00509619 -0.0362833
-0.000777514 -0.0121997
0.00439096 -0.0343178
-0.00521944 -0.0649837
0.00438296 -0.0501462
0.00757074 -0.043373
0.00660816 -0.0665737
-0.00733037 -0.0447221
-0.00212254 -0.0532824
0.000334008 -0.0522418
0.000277726 -0.0521529
0.000193075 -0.052131
7.66624e-05 -0.0521444
-3.69807e-05 -0.0521714
-0.000131045 -0.0522158
-0.000196479 -0.052312
-0.000883134 -0.0536964
-0.00186212 -0.0536517
0.00159169 -0.053778
0.000528717 -0.0536855
0.00033745 -0.0525016
4.12839e-06 -0.0530569
-0.000342407 -0.0531111
0.000280999 -0.0533077
-9.56581e-05 -0.0531696
-0.000238819 -0.0525754
-0.00167312 -0.0531049
0.00168154 -0.0533607
-0.00283252 -0.0529949
-0.00322533 -0.0534923
-0.0039941 -0.053744
-0.00456263 -0.0545437
-0.00583561 -0.0550126
-0.00698966 -0.0562402
-0.00838049 -0.0574131
-0.00997683 -0.0593395
-0.0115394 -0.0613042
0.00263059 -0.0305964
0.00101585 -0.0461264
-0.000954243 -0.0472436
-0.00252112 -0.0329563
-0.0120484 -0.0662905
-0.0115696 -0.068151
-0.0108204 -0.0696213
-0.0101204 -0.0711035
-0.00799628 -0.0701271
0.00846046 -0.070578
0.0101729 -0.0710343
0.0110277 -0.0698147
0.0116386 -0.0680468
0.0120525 -0.0657342
0.0111602 -0.0628866
0.0100656 -0.06011
0.00889698 -0.0577188
0.00692929 -0.0564086
0.00589354 -0.0546172
0.00478931 -0.0540959
0.0040071 -0.0538411
0.00281558 -0.0532945
0.00370252 -0.0128612
-2.33701e-05 -0.0232377
-0.00399851 -0.0340743
-0.00375385 -0.0126031
0.00328344 -0.0320625
-0.000119968 -0.0225756
-0.00555377 -0.0688473
-0.00254306 -0.0676569
0.00429952 -0.0516674
0.00633341 -0.0693367
-0.00150546 -0.0558866
0.00369828 -0.0670643
0.000169996 -0.0523369
0.000159177 -0.0524124
0.000190851 -0.05226
0.000203833 -0.0521999
0.00019989 -0.0522263
0.000202187 -0.0521671
0.000179697 -0.0521516
0.000192477 -0.0521581
0.000146472 -0.0521479
0.00010481 -0.0521517
0.000126363 -0.0521495
5.98157e-05 -0.0521609
1.42949e-05 -0.0521735
3.69864e-05 -0.052167
-2.54246e-05 -0.0521905
-6.1456e-05 -0.0522151
-4.43817e-05 -0.0522021
-8.39569e-05 -0.0522492
-9.48199e-05 -0.0523023
-9.13813e-05 -0.0522737
-8.14802e-05 -0.0523785
-5.14025e-05 -0.0525016
-6.90702e-05 -0.0524331
-0.0019547 -0.0528358
-0.0023109 -0.0528861
0.00229891 -0.0531805
0.00194572 -0.0531255
-0.00128844 -0.0535114
-0.000731236 -0.0529026
0.00108116 -0.0535002
0.000753049 -0.0534476
0.000819559 -0.0530839
6.48103e-05 -0.0526497
-1.0556e-05 -0.0527872
6.97921e-05 -0.0529553
-2.13614e-05 -0.0527652
-0.00137064 -0.0527508
0.00142835 -0.0528635
-0.000967691 -0.0527244
-0.00113283 -0.0527315
0.0011931 -0.052844
0.00103016 -0.0528367
-0.000595544 -0.0526371
-0.000257777 -0.0526476
-0.000432708 -0.05264
0.000675062 -0.0528422
0.000516342 -0.052839
0.000355428 -0.0528382
0.000488218 -0.0530557
-0.000371624 -0.0528009
0.0011664 -0.0531025
-0.00109577 -0.0530059
-0.000245037 -0.052866
0.000265606 -0.0527637
0.00102098 -0.0538523
-0.0014977 -0.0540053
0.00220996 -0.053638
-0.00226335 -0.0532079
-0.0002226 -0.052409
-0.000165571 -0.0522543
-8.67217e-05 -0.0521904
1.81685e-05 -0.0521574
0.000137098 -0.0521351
0.00024181 -0.0521357
0.000300996 -0.0521909
0.000379502 -0.0523386
0.00418912 -0.0638016
-0.00183933 -0.0609237
-0.000374088 -0.0210887
-0.000123562 -0.0222946
0.00459559 -0.0547885
0.00717997 -0.0586975
0.00932889 -0.0645081
0.00880136 -0.0684752
-0.00774543 -0.067068
-0.00950381 -0.0653182
-0.00449128 -0.0427236
0.00477505 -0.039938
-0.0100014 -0.0619897
-0.00673818 -0.0578648
-0.00422635 -0.0556657
-0.00305661 -0.0541581
9.29181e-05 -0.0535116
-0.000318462 -0.0533955
-0.00658222 -0.0443839
0.00680768 -0.0428552
0.000706018 -0.0500589
-0.000929133 -0.052507
-0.000756911 -0.053282
0.000725612 -0.0531541
0.00101618 -0.0523974
0.000454542 -0.0545154
0.00272074 -0.0553984
-0.00226811 -0.0552136
-0.000525522 -0.0544081
-0.000574803 -0.0522448
-0.000402163 -0.0521292
-0.000157226 -0.0521133
1.70977e-05 -0.0520577
0.00033836 -0.0520166
0.000593741 -0.0520407
0.000724018 -0.0521659
-0.0013717 -0.0543793
0.00365075 -0.0604269
-0.000841134 -0.0571382
-0.00427724 -0.0606726
0.004923 -0.0484668
-0.00335593 -0.050042
0.00384636 -0.0570331
0.00439074 -0.0594333
-0.00101161 -0.0517149
0.00115067 -0.0509646
-0.00586735 -0.0603717
-0.003233 -0.0567674
-0.00295676 -0.0524112
0.00283185 -0.052423
-0.00120295 -0.0520394
-0.00216054 -0.0523517
-0.00103012 -0.0539437
0.000975221 -0.0537924
0.0020467 -0.0522516
0.0013025 -0.0519813
0.00234921 -0.0564471
-0.00165868 -0.0557174
-0.000423309 -0.0519916
0.000107972 -0.0518339
0.000870394 -0.056731
0.00116412 -0.0545309
0.00126806 -0.0567404
-0.00152248 -0.0571408
0.000808783 -0.0557818
-0.000534936 -0.0552132
-0.000481911 -0.055061
8.37092e-05 -0.0552394
-0.00203981 -0.056823
-0.00445045 -0.0520839
0.00122762 -0.0703271
-0.00214159 -0.0611526
0.000832485 -0.0641266
9.54386e-05 -0.0694043
0.00159572 -0.0602038
-0.00120487 -0.0702759
0.00647301 -0.0493031
0.00313685 -0.0575212
-5.94923e-05 -0.0693423
0.000213125 -0.0626831
0.00146485 -0.0561141
0.00150277 -0.0271442
0.0037088 -0.0315709
0.00196894 -0.0260997
0.0060777 -0.0375209
-0.00181463 -0.0142026
-1.94557e-05 -0.0173517
0.000565719 -0.0223582
-0.000394388 -0.0220887
0.00117176 -0.0264329
-0.00213557 -0.0171471
-0.00115404 -0.0182669
-0.00305047 -0.0137375
0.00194618 -0.0211829
0.00345918 -0.0246969
-0.00424271 -0.0110191
-0.00228979 -0.0165554
-0.00192905 -0.0285229
-0.00201682 -0.0265698
-0.00404896 -0.0329291
-0.000604326 -0.0227771
0.00183653 -0.0142445
2.92584e-05 -0.0174067
-0.00657433 -0.0391311
-0.00175388 -0.02803
6.76372e-05 -0.0230203
0.00204484 -0.0175892
0.00305101 -0.0139194
0.00112373 -0.0186196
0.00424235 -0.0111609
-0.00194089 -0.0212552
-0.0034467 -0.0247901
0.00205067 -0.0172499
-0.00157985 -0.0421311
0.00121353 -0.0453184
0.00136606 -0.0386376
0.000603159 -0.049525
0 0
0 0
-0.00131846 -0.0197634
-0.00376848 -0.0384369
-0.00280506 -0.045053
0.00170819 -0.0404553
-0.00131924 -0.0376704
-0.00135252 -0.0445624
0.00139782 -0.0179542
0 0
-0.0074486 -0.0305202
-0.000764222 -0.0492388
0.00311619 -0.0430922
0.00388187 -0.0356712
-0.00526659 -0.0489754
-0.00535216 -0.0491626
-0.00186109 -0.053827
-0.00816109 -0.0449156
0.0012501 -0.0581585
-0.00571068 -0.0483083
-0.00680925 -0.0453725
0.00688021 -0.0464924
0.00439268 -0.0504831
0.00727301 -0.0466839
0.00122407 -0.0548423
0.0082664 -0.0439137
0.00720079 -0.0434803
0.00649063 -0.0467419
0.00626683 -0.0397312
0.00637885 -0.0395092
0.00383702 -0.0334602
0.00198887 -0.0278164
0.00591694 -0.038963
-0.00642623 -0.0407131
-0.00457472 -0.0353747
-0.00683142 -0.0409462
-0.00273246 -0.0296152
-0.00625595 -0.0408051
-0.00198456 -0.0224734
-0.00390492 -0.0308227
-0.00217899 -0.0208983
-0.00489433 -0.0373123
0.000724135 -0.0071066
0.000342229 -0.0177461
-0.00231952 -0.026534
-0.000792544 -0.0499991
-0.000647903 -0.0497428
-0.00193179 -0.0482326
-5.42583e-05 -0.0502356
-0.00346424 -0.0466496
-0.000824324 -0.0500473
0.000447614 -0.0501137
0.00141671 -0.0493329
0.002306 -0.0468207
0.000868478 -0.0491003
0.00403352 -0.0444647
0.00195892 -0.0492503
0.00136939 -0.0207751
0.00181067 -0.0191235
0.00359656 -0.0284265
-0.000858423 -0.00689274
0.00468404 -0.0345189
0.00164553 -0.0248335
-0.000752779 -0.0168821
-0.00549088 -0.048708
-0.00388683 -0.0510774
-0.00170168 -0.0539539
-0.00263109 -0.0529075
0.00665393 -0.0456406
0.00420666 -0.0504239
0.00151741 -0.0540155
0.0017097 -0.0537815
-0.00611364 -0.0469879
-0.00469852 -0.0501108
-0.00341339 -0.051954
-0.00415986 -0.0509242
-0.00469492 -0.049951
-0.00487327 -0.0492229
-0.00554967 -0.0481044
-0.00385289 -0.0502159
-0.00454671 -0.0489673
-0.00616687 -0.0458904
-0.00370631 -0.0513382
0.00498034 -0.0490284
0.00434822 -0.0497526
0.00422844 -0.0503687
0.00345585 -0.0514356
0.00287017 -0.0516112
0.00389869 -0.0511305
-0.00302495 -0.050732
-0.00333735 -0.0510352
-0.00311799 -0.0516188
-0.00251024 -0.0517473
-0.00253174 -0.0507559
-0.00219623 -0.0512553
-0.00177394 -0.0515762
-0.00135578 -0.0514992
0.00100408 -0.0512821
0.0004313 -0.0512682
0.000344702 -0.0515102
-2.58822e-05 -0.0516691
-0.000661788 -0.0516001
0.000433022 -0.0517033
0.00288636 -0.0511461
0.00348092 -0.0503939
0.00261734 -0.0508262
0.00404822 -0.0494446
0.00210653 -0.0506337
0.00173005 -0.0511511
0.00222798 -0.0517041
0.00147735 -0.0514572
0.000897754 -0.0516842
0.00112371 -0.0518739
0.000508102 -0.0518211
0.00145979 -0.0516397
0.00174192 -0.0517095
0.00242017 -0.00367963
0.00238712 -0.00941731
0.00184973 -0.00490065
0.00254021 -0.0138445
0 0
0 0
0.00297113 -0.00297836
0.00506896 -0.00821018
0.0040721 -0.0102402
0.0045751 -0.00596789
-0.0049797 -0.0290489
-0.00604012 -0.0315688
-0.00459589 -0.00591406
-0.00414308 -0.0100386
-0.00507018 -0.00812005
-0.00278711 -0.0132486
0.00500009 -0.0289238
0.00604201 -0.0314027
-0.00299034 -0.00296537
-0.0019198 -0.00481746
-0.0025597 -0.00915732
-0.00243866 -0.00364362
-0.0058511 -0.0424626
-0.00295684 -0.0481767
-0.003229 -0.048976
-0.00208448 -0.0495056
-0.00339771 -0.0480818
-0.000516252 -0.0501904
-0.00465277 -0.0452528
-0.00403099 -0.0487935
-0.0026792 -0.0499019
-0.00545342 -0.0448038
-0.00594205 -0.0449269
-0.00513204 -0.0471121
-0.0063006 -0.0428108
-0.00536228 -0.0417431
-0.00441908 -0.0335404
-0.00578479 -0.0390705
-0.00528742 -0.0371754
0.00482752 -0.0346798
0.00533855 -0.0369661
0.00374027 -0.0314466
0.00628366 -0.0408635
0.00543783 -0.0390102
0.00601724 -0.0450206
0.00635397 -0.0431143
0.00589473 -0.0421408
0.00661855 -0.0445818
0.00523509 -0.0424007
0.00535418 -0.0466758
0.00568173 -0.0473846
0.00334967 -0.0493959
0.00232717 -0.0497295
0.00217694 -0.0501813
0.0021166 -0.0495008
0.000924459 -0.0501101
0.00114825 -0.050579
0.00434084 -0.0484071
0.0043832 -0.0458992
0.00335182 -0.0480623
0.00462502 -0.0470485
0.00558971 -0.0484331
0.00505998 -0.0494355
0.0061634 -0.0469704
0.00311034 -0.0521043
0.00558567 -0.0482393
0.00468798 -0.0500884
0.00358927 -0.0516448
-0.000576927 -0.0511692
-0.00139761 -0.051012
-0.000941897 -0.0513848
-0.00221895 -0.050544
0.000125377 -0.0509493
-0.000363908 -0.0503768
-0.00142136 -0.0503686
9.92256e-06 -0.0506126
0.000622134 -0.0655895
-0.00124556 -0.0654319
-0.000924204 -0.0677949
-0.00100569 -0.0614916
-0.00238035 -0.0642907
-0.00192939 -0.0689796
0.00113791 -0.0681805
0.00245061 -0.0667296
0.0017515 -0.0636323
0.0021512 -0.0565378
0.000695037 -0.0593914
0.00156192 -0.0603738
-0.000326101 -0.0587426
0.00339016 -0.0615384
0.0035795 -0.0544387
0.00278184 -0.0540606
0.00761851 -0.0406663
0.00711308 -0.0343895
0.00633127 -0.0365153
0.00446405 -0.0347181
0.00536176 -0.033343
0.00801983 -0.0385426
-0.00710375 -0.0345779
-0.00795288 -0.0417613
-0.00653347 -0.0375403
-0.00555952 -0.0343065
-0.00505309 -0.0365251
-0.007897 -0.038723
-0.00688627 -0.0471212
-0.00698042 -0.0477312
-0.00500823 -0.0500704
-0.00880841 -0.0450735
-0.00664794 -0.0493473
-0.00288412 -0.0541286
-0.00343472 -0.0522243
-0.00687746 -0.0466228
-0.00769907 -0.0447397
-3.50245e-05 -0.0569392
0.00144097 -0.0589725
-0.000196986 -0.0561388
0.00296484 -0.0621333
0.00281881 -0.0609811
-0.000449686 -0.0555633
-0.00202664 -0.0534165
-0.00168318 -0.054528
0.000156936 -0.0582169
-0.00557591 -0.0485204
-0.00632633 -0.0469303
-0.00635473 -0.0470829
-0.00640221 -0.0463359
-0.00672122 -0.0447721
-0.00704439 -0.0450181
-0.00651352 -0.0469452
-0.00370025 -0.0511698
-0.00453528 -0.0500878
0.00268632 -0.0527998
0.00131917 -0.0552583
0.0028879 -0.0531242
-0.000421145 -0.0578844
0.00436878 -0.0508908
0.00441268 -0.0502075
0.0028528 -0.0523112
0.00704606 -0.0475297
0.00829016 -0.0458505
0.00803447 -0.0453334
0.007952 -0.0476331
0.0089613 -0.0444301
0.00789076 -0.0435873
0.00781137 -0.0448618
0.00599088 -0.0488023
0.00533815 -0.0505721
0.00730075 -0.0449043
0.00703932 -0.0451766
0.00667186 -0.0465881
0.00698597 -0.0431024
0.00693524 -0.0447512
0.00568353 -0.0482598
0.0056948 -0.0483397
0.00750101 -0.0449797
0.00736948 -0.0433996
0.0074011 -0.0416495
0.007555 -0.041364
0.00625935 -0.0388946
0.00475381 -0.0357589
0.00720988 -0.0416569
0.00698776 -0.0415207
0.00691596 -0.0417126
0.00669265 -0.0414325
0.00522131 -0.036933
-0.00677963 -0.0404412
-0.00800906 -0.042649
-0.0076613 -0.0428225
-0.00737505 -0.0430217
-0.00543023 -0.0376313
-0.00705375 -0.0426747
-0.00693485 -0.0431927
-0.00570116 -0.0384419
-0.00667921 -0.0426793
-0.00309643 -0.0520565
-0.00191815 -0.0536159
-0.00279154 -0.0525579
-0.0028912 -0.0525188
-0.00154701 -0.0541882
-0.00389355 -0.0511789
0.00139148 -0.0542916
-2.19108e-05 -0.0562264
-0.000231514 -0.0568122
0.000274614 -0.0556723
-0.0011501 -0.0577148
-0.00170145 -0.0594973
0.00287931 -0.0521648
0.00294052 -0.0521503
0.00163093 -0.0538499
0.00294445 -0.0520862
0.00043102 -0.0554337
0.004303 -0.0502502
0.0051388 -0.0491236
0.00363214 -0.0513169
0.000973263 -0.0547514
0.00246971 -0.0528566
0.00387037 -0.0512098
0.00454945 -0.0501257
-0.000239648 -0.0562828
0.00172655 -0.053849
0.00210577 -0.0534475
0.000776245 -0.0550127
-0.000403986 -0.0555465
0.000851947 -0.0570893
-0.000441253 -0.0554972
0.0023617 -0.0590124
0.00221613 -0.0586373
-0.0003568 -0.0555597
-0.000493606 -0.0554321
0.00138855 -0.0618491