<?xml version="1.0"?>
<VTKFile type="UnstructuredGrid">
  <UnstructuredGrid>
  <Piece NumberOfPoints="3487"  NumberOfCells="1698">
    <Points>
      <DataArray type="Float64" NumberOfComponents="3" format="ascii">
39.9739 48.8793 0
60.0262 48.879 0
40.6343 49.0099 0
41.2964 49.1317 0
41.9599 49.2444 0
42.6248 49.3483 0
43.2911 49.4431 0
43.9586 49.529 0
44.6271 49.6058 0
45.2967 49.6737 0
45.967 49.7325 0
46.6381 49.7823 0
47.3098 49.823 0
47.982 49.8547 0
48.6545 49.8773 0
49.3273 49.8909 0
50.0001 49.8954 0
50.673 49.8909 0
51.3458 49.8773 0
52.0183 49.8546 0
52.6905 49.8229 0
53.3622 49.7822 0
54.0332 49.7324 0
54.7036 49.6735 0
55.3731 49.6057 0
56.0417 49.5288 0
56.7091 49.4429 0
57.3754 49.3481 0
58.0403 49.2442 0
58.7038 49.1314 0
59.3658 49.0097 0
39.9983 49.8949 0
39.997 49.6409 0
39.9925 49.387 0
39.9848 49.1331 0
19.9705 69.8672 0
39.9962 50.1566 0
39.9908 50.4182 0
39.9768 50.7966 0
39.9557 51.1746 0
39.9124 51.7209 0
39.8542 52.2658 0
39.7435 53.0511 0
39.6018 53.8313 0
39.3421 54.949 0
39.0187 56.0502 0
38.7456 56.8343 0
38.4401 57.6066 0
38.1028 58.3655 0
37.7342 59.1097 0
37.147 60.1581 0
36.4978 61.1694 0
35.789 62.1399 0
-0.0155745 49.8532 0
17.3602 69.6935 0
14.7949 69.1808 0
12.3185 68.3378 0
9.97302 67.179 0
7.79888 65.7242 0
11.5156 31.806 0
0.186726 47.0339 0
0.785041 44.2715 0
1.76751 41.6214 0
0 0 0
0.13191 3.7226 0
0.545887 7.42668 0
1.23792 11.0902 0
2.20371 14.6909 0
3.1065 17.344 0
49.9999 -0.0998942 0
5.1116 0 0
10.2232 0 0
15.3348 0 0
100 0 0
57.3942 -0.0967654 0
64.7884 -0.0853449 0
72.1804 -0.0614832 0
88.4846 31.8057 0
99.8681 3.72258 0
99.4542 7.42658 0
98.7621 11.0901 0
97.7963 14.6908 0
96.8936 17.3439 0
100.016 49.8531 0
99.8133 47.0338 0
99.215 44.2714 0
98.2325 41.6212 0
80.0295 69.867 0
99.8465 52.4636 0
99.3379 55.0296 0
98.4985 57.5072 0
97.3428 59.8542 0
95.8907 62.0301 0
60.0018 49.8947 0
77.5187 69.7115 0
75.0472 69.2423 0
72.6541 68.4667 0
70.3772 67.397 0
68.8908 66.4948 0
67.4883 65.4668 0
66.1803 64.321 0
64.9768 63.0658 0
64.211 62.1397 0
63.5022 61.1692 0
62.853 60.1579 0
62.2658 59.1095 0
61.56 57.6064 0
60.9814 56.05 0
60.658 54.9489 0
60.3983 53.8311 0
60.2566 53.0508 0
60.0031 49.6407 0
60.0076 49.3867 0
60.0153 49.1328 0
52.8204 30.1473 0
26.5231 36.9698 0
40.3284 24.2703 0
24.9288 22.5273 0
71.9418 22.5576 0
72.7064 44.0341 0
54.8054 24.096 0
15.3069 47.5068 0
38.3614 49.5088 0
23.6139 65.338 0
7.70087 7.7505 0
91.9409 7.72909 0
29.1712 56.9769 0
37.1862 51.9818 0
28.0893 47.2818 0
29.7286 48.2428 0
71.5148 46.766 0
30.9873 49.141 0
70.5136 48.2448 0
31.6352 45.7248 0
30.8872 47.1819 0
70.0639 46.7535 0
68.9844 45.0751 0
31.2921 50.2367 0
30.9056 51.461 0
28.1892 49.2405 0
45.3066 41.353 0
53.8451 40.9742 0
56.0297 40.5231 0
73.1265 47.5229 0
70.1131 49.4862 0
68.3353 42.5018 0
32.3084 42.8318 0
26.1366 45.7638 0
27.6759 44.766 0
30.302 43.3913 0
70.4158 42.7019 0
72.6767 46.0319 0
44.8476 43.1457 0
51.431 42.0522 0
55.4113 42.6387 0
32.4509 49.1758 0
68.5539 49.7212 0
39.474 42.1374 0
35.4368 43.4557 0
32.894 46.6229 0
33.5774 48.3717 0
67.1036 48.3174 0
67.9831 46.554 0
65.0759 43.1193 0
60.4223 41.7751 0
32.3691 51.496 0
28.2184 51.1011 0
41.7742 37.3582 0
46.8218 37.7631 0
52.0498 39.9365 0
58.6817 39.3061 0
26.6081 52.0002 0
24.3025 50.435 0
74.2252 50.0401 0
71.1635 50.7399 0
69.1402 52.3195 0
67.915 52.4518 0
59.7674 36.4252 0
66.5076 40.7456 0
34.1033 41.1219 0
36.0186 35.8557 0
23.1848 47.2624 0
21.6455 43.3613 0
28.3496 41.8738 0
74.318 44.7912 0
76.6349 48.6475 0
43.0525 43.7338 0
46.2675 43.0194 0
49.968 43.0674 0
48.4322 42.8502 0
51.7635 44.1051 0
54.0892 44.2209 0
52.9066 44.5165 0
56.2741 43.7697 0
33.8822 49.4676 0
33.7839 50.9822 0
66.535 51.7986 0
66.5947 49.8063 0
41.83 43.9715 0
40.7005 43.7093 0
38.4577 43.3172 0
37.1395 43.9232 0
35.3446 45.6332 0
34.3253 46.9144 0
66.0241 46.6388 0
65.0203 45.3637 0
63.1927 43.6073 0
61.7072 43.1572 0
58.8807 43.5698 0
57.5408 43.8858 0
33.3973 52.2067 0
29.1698 53.823 0
40.8285 31.0784 0
50.8857 36.0769 0
55.6708 34.3586 0
23.5644 53.5518 0
76.9148 52.0196 0
70.2353 53.4288 0
66.405 53.0405 0
65.48 35.2399 0
30.9442 34.6563 0
19.4486 47.3878 0
26.1235 40.1092 0
72.0119 34.1758 0
72.0569 41.4615 0
77.4844 45.3977 0
43.1659 45.1762 0
45.8085 44.8122 0
48.7644 44.9031 0
51.4435 45.5318 0
53.7694 45.6476 0
56.2188 45.4681 0
34.9105 50.1781 0
65.0846 50.3948 0
40.8137 45.1516 0
38.3659 45.4953 0
36.0282 47.3823 0
64.1406 47.1273 0
61.6512 45.4021 0
58.8257 45.2682 0
36.0696 52.4523 0
34.9191 53.217 0
33.5043 53.7307 0
31.9052 55.5256 0
26.0994 59.003 0
23.0023 57.4099 0
32.389 22.7713 0
47.0351 26.7649 0
63.1449 23.1201 0
19.9944 55.1207 0
80.1839 54.3858 0
75.7962 55.8901 0
71.9338 56.2383 0
69.0876 55.5553 0
65.7718 54.049 0
64.0961 53.8913 0
68.1617 29.0756 0
26.7673 30.1621 0
17.243 51.8523 0
14.6011 42.5422 0
22.3939 34.1435 0
84.8924 46.9681 0
84.716 52.127 0
75.1753 38.0181 0
81.2127 44.035 0
42.4557 46.5069 0
41.415 46.3154 0
44.9648 46.3522 0
43.6783 46.2692 0
47.7358 46.2934 0
46.3849 46.2259 0
50.62 46.6067 0
49.2718 46.5106 0
53.0509 47.0019 0
51.7632 47.0181 0
55.5137 46.6144 0
54.2337 46.7063 0
58.0623 46.5684 0
56.7806 46.7305 0
36.3734 48.7051 0
36.0271 49.7075 0
35.9288 51.2223 0
63.384 52.156 0
63.828 51.1433 0
63.8878 49.1506 0
63.8372 48.2474 0
40.2854 46.0531 0
39.3696 46.2331 0
38.0512 46.8389 0
37.3928 47.4239 0
62.8333 46.9722 0
62.0178 46.6469 0
60.5321 46.1969 0
59.4023 46.2523 0
38.061 52.6514 0
36.1766 53.9766 0
34.0759 56.8411 0
29.6009 59.9163 0
22.8767 61.4715 0
21.7347 15.46 0
39.9615 16.2945 0
48.9008 11.5819 0
56.9456 17.0275 0
76.6495 15.7014 0
15.6385 57.174 0
84.5201 57.6098 0
73.4088 59.5845 0
66.5187 55.7106 0
62.4552 53.6602 0
82.9392 7.85857 0
79.7481 22.6673 0
16.3095 7.93915 0
18.343 22.3796 0
10.7216 46.8735 0
16.5751 36.0847 0
15.5138 30.4761 0
89.404 49.7524 0
83.3187 31.3222 0
81.5784 39.3854 0
41.9274 47.4085 0
44.2547 47.683 0
46.8923 47.8334 0
49.5914 47.997 0
52.2274 48.0769 0
54.7953 47.9687 0
57.3572 47.7147 0
37.3918 49.7493 0
37.9202 51.4213 0
62.1871 50.9119 0
62.5805 48.9957 0
39.9708 47.3971 0
38.3966 48.162 0
38.512 48.932 0
61.7649 48.6308 0
61.7142 47.7672 0
59.7688 47.4973 0
38.8899 51.181 0
61.3472 51.1158 0
39.1984 52.9611 0
38.4644 53.5216 0
38.1729 54.6309 0
37.0225 55.3955 0
36.5194 57.1694 0
34.8723 58.6936 0
33.3662 60.5524 0
30.7513 62.6651 0
27.9927 64.8191 0
27.1667 7.8783 0
38.6552 8.42848 0
59.8775 8.65464 0
71.7691 7.96262 0
19.2395 64.7858 0
14.9424 63.0544 0
10.7423 60.2685 0
6.29425 57.2268 0
6.00136 51.293 0
94.2319 52.3907 0
93.315 57.4454 0
89.3299 60.7882 0
84.577 63.298 0
79.4695 64.9668 0
74.5716 63.9962 0
70.2647 62.7113 0
66.8288 61.2547 0
65.216 58.5811 0
62.7165 57.2524 0
62.0744 55.7226 0
61.7828 54.6133 0
61.0707 52.8778 0
93.4875 14.567 0
89.7946 20.7566 0
86.1134 25.1219 0
6.25901 14.5596 0
13.0067 24.5832 0
9.79042 20.7449 0
5.76198 45.7237 0
5.65467 40.7792 0
12.2985 34.8172 0
94.2266 47.2704 0
88.1211 37.1711 0
93.3575 42.5391 0
41.0914 48.1744 0
40.4303 48.0482 0
42.1323 48.3658 0
43.4633 48.5645 0
42.7965 48.4741 0
44.7499 48.6475 0
46.0897 48.7741 0
45.4189 48.7198 0
47.4407 48.8416 0
48.7852 48.8959 0
48.1126 48.8778 0
50.1335 48.992 0
51.479 48.9739 0
50.8063 48.992 0
52.7668 48.9576 0
54.1094 48.8671 0
53.4387 48.9214 0
55.3895 48.7751 0
56.7254 48.6124 0
56.0586 48.7028 0
58.0072 48.4503 0
59.3325 48.2158 0
58.6714 48.342 0
39.3753 51.6328 0
39.3246 52.1784 0
60.9445 52.0951 0
60.8937 51.5496 0
38.0151 50.5114 0
39.1353 49.6941 0
61.7913 50.1029 0
61.8156 49.5343 0
60.9757 49.7381 0
39.5144 48.2281 0
39.1705 48.3471 0
60.9492 48.3056 0
60.4624 48.1604 0
39.4702 50.7228 0
60.4979 50.7406 0
39.4915 50.0829 0
39.4877 50.3445 0
60.4804 50.3623 0
60.4766 50.1007 0
39.6421 49.506 0
39.6299 48.9983 0
39.6392 49.2521 0
60.5009 49.532 0
60.5038 49.278 0
60.5131 49.0242 0
61 49.1694 0
39.2859 49.1173 0
60.9514 50.3068 0
38.9847 50.271 0
60.8987 47.4418 0
39.055 47.577 0
62.6312 49.8991 0
37.0454 50.7518 0
61.7431 51.9248 0
38.795 52.0909 0
58.6389 47.5526 0
56.0754 47.8768 0
53.5152 48.0607 0
50.9397 48.0931 0
48.2432 47.9009 0
45.5413 47.7659 0
42.9682 47.6 0
40.8866 47.217 0
89.151 44.9018 0
10.9256 41.025 0
13.2815 16.216 0
85.8813 16.4264 0
63.1674 55.3955 0
68.914 58.5708 0
78.9391 59.9778 0
89.2863 55.0385 0
11.7744 52.9839 0
19.2391 59.8061 0
66.7191 15.835 0
30.7517 15.5501 0
26.3623 62.2416 0
32.1654 58.0842 0
35.0261 54.7412 0
37.327 53.2119 0
62.5298 48.0924 0
37.738 48.7468 0
75.9521 28.7636 0
20.5009 28.6694 0
47.9137 19.3836 0
60.1657 44.952 0
63.1369 45.852 0
37.0475 46.101 0
39.6842 44.8893 0
65.1445 48.4023 0
65.025 52.3874 0
34.8121 51.6929 0
35.0087 48.6634 0
57.4856 45.5842 0
54.952 45.352 0
52.5868 45.9432 0
50.3003 45.1204 0
47.2285 44.6859 0
44.3884 44.9384 0
41.9433 45.4138 0
74.3476 42.7937 0
80.2618 48.9915 0
17.9969 43.4419 0
21.3151 50.9028 0
34.4333 29.7963 0
59.9913 30.3506 0
67.7849 53.6936 0
73.3974 53.1363 0
54.4637 38.8586 0
46.5063 33.0133 0
26.2398 55.5076 0
31.9825 52.7204 0
69.7667 40.1288 0
30.9751 40.4985 0
57.596 42.1875 0
63.2486 41.3626 0
66.9037 44.8754 0
33.6417 45.1656 0
37.2313 41.7455 0
41.7166 42.5293 0
68.0451 51.21 0
32.7557 50.2717 0
53.2264 43.0899 0
49.6357 41.0145 0
74.2885 46.7888 0
25.7234 43.2484 0
71.9646 48.2571 0
26.5499 48.2795 0
69.0627 48.2324 0
32.146 48.0801 0
71.0652 45.2748 0
29.6285 46.2839 0
29.8285 50.2018 0
88.162 34.5043 0
96.8854 39.1367 0
91.3044 35.8834 0
92.2284 38.7516 0
96.0832 37.9723 0
88.4948 40.9155 0
3.11463 39.1368 0
11.8602 33.2708 0
9.99807 35.1564 0
3.91686 37.9724 0
8.31706 37.6676 0
11.6893 37.166 0
11.3984 22.6644 0
10.9802 26.5302 0
9.37194 24.6125 0
11.854 29.0273 0
4.15748 19.9413 0
5.35334 22.4746 0
8.23958 22.8394 0
11.5357 18.4799 0
13.1435 20.3999 0
8.02432 17.6531 0
6.97358 20.3433 0
5.20771 17.2498 0
6.69014 24.9358 0
7.78509 26.7331 0
4.23117 14.6253 0
9.7698 15.3884 0
87.9542 22.9395 0
90.4206 24.6181 0
88.5799 26.7988 0
91.553 22.845 0
95.8426 19.9412 0
94.6467 22.4745 0
87.7288 29.3457 0
85.998 20.7745 0
[...]
    <PointData>
      <DataArray type="Float64" NumberOfComponents="2" Name="Displacement" format="ascii">
-0.000278115 -0.105251
0.000434434 -0.105512
-4.75119e-05 -0.105102
0.000115788 -0.104954
0.000202896 -0.104852
0.000263388 -0.104767
0.00029969 -0.104704
0.000322304 -0.10466
0.000329925 -0.104623
0.000328267 -0.104597
0.000317312 -0.10458
0.000299804 -0.104572
0.000275551 -0.104565
0.000246845 -0.104564
0.000214065 -0.104568
0.000178945 -0.104575
0.000141734 -0.104583
0.000104076 -0.104593
6.68272e-05 -0.104608
3.11534e-05 -0.104626
-1.6528e-06 -0.104644
-3.09077e-05 -0.104668
-5.5171e-05 -0.104697
-7.34871e-05 -0.104734
-8.30275e-05 -0.104774
-8.41951e-05 -0.104825
-7.37609e-05 -0.10489
-5.07823e-05 -0.10497
-2.24133e-08 -0.105059
7.30572e-05 -0.105178
0.000210907 -0.105342
-0.00172679 -0.10508
-0.00138953 -0.105089
-0.00105456 -0.105109
-0.000707847 -0.10516
-0.0294994 -0.132821
-0.00205529 -0.105084
-0.00238511 -0.105096
-0.00286682 -0.105122
-0.00335379 -0.105159
-0.00406205 -0.105232
-0.00478051 -0.105328
-0.00583652 -0.105506
-0.0069079 -0.105732
-0.00847643 -0.106144
-0.0100579 -0.106655
-0.0111996 -0.107086
-0.0123367 -0.107568
-0.0134631 -0.108105
-0.0145739 -0.10869
-0.0161429 -0.109622
-0.0176606 -0.110647
-0.0191111 -0.111762
-0.0155745 -0.146772
-0.029245 -0.135433
-0.0286963 -0.137757
-0.0279272 -0.139767
-0.026984 -0.14147
-0.0259336 -0.14289
0.019174 -0.0918588
-0.0130339 -0.146406
-0.0100079 -0.145455
-0.00646231 -0.143822
0 0
-0.00735944 -0.00668215
-0.0104139 -0.0111061
-0.0108571 -0.0146847
-0.00908229 -0.0190448
-0.00662719 -0.0232622
-9.05351e-05 -0.0998942
0 0
0 0
0 0
0 0
0.00578238 -0.0967654
0.0116326 -0.0853449
0.015178 -0.0614832
-0.0189846 -0.0920815
0.00738759 -0.00667167
0.0104582 -0.0111442
0.0109084 -0.0147445
0.00913894 -0.0191235
0.00668367 -0.0233434
0.0156154 -0.146888
0.0130743 -0.14652
0.0100664 -0.145565
0.00650966 -0.143953
0.029479 -0.133005
0.017627 -0.146952
0.0193603 -0.146742
0.0209027 -0.146377
0.0222843 -0.145814
0.0235772 -0.145109
0.00183193 -0.105348
0.0293891 -0.130255
0.0289104 -0.127321
0.0279981 -0.124264
0.0266348 -0.121172
0.0254168 -0.119062
0.0239837 -0.117006
0.0223373 -0.115042
0.0205011 -0.113194
0.0191258 -0.112005
0.0176796 -0.110895
0.0161664 -0.109872
0.014602 -0.108944
0.0123746 -0.107829
0.0101041 -0.106911
0.00852888 -0.106406
0.00697052 -0.105999
0.00590391 -0.105773
0.00150467 -0.10536
0.00117914 -0.105383
0.000835593 -0.105434
-0.00201608 -0.101875
0.00882959 -0.101418
0.00697314 -0.0977387
0.0117289 -0.0791406
-0.0118639 -0.0838516
-0.00185101 -0.109879
-0.00361265 -0.100243
-0.00839944 -0.124183
-0.00136952 -0.10674
-0.0243081 -0.128337
-0.00780829 -0.0142175
0.00767173 -0.0144862
-0.012757 -0.11894
-0.00456692 -0.10846
-0.00137727 -0.112601
-0.0019205 -0.112429
0.000752602 -0.112096
-0.00254855 -0.112282
0.00207117 -0.11282
0.00117072 -0.109252
-0.000455078 -0.110826
0.000326804 -0.111255
-0.00160068 -0.109268
-0.00371104 -0.112845
-0.0052771 -0.113995
-0.00356279 -0.114361
0.0017794 -0.1039
-0.00139924 -0.104009
-0.00234867 -0.103992
0.00214778 -0.113831
0.0033427 -0.113569
-0.00398111 -0.10691
0.00380506 -0.106741
-0.000359812 -0.11215
0.00124232 -0.110274
0.00316317 -0.107862
-0.00364106 -0.107686
0.000315704 -0.112013
0.00153203 -0.10414
-0.000399791 -0.104098
-0.00158936 -0.104268
-0.00219464 -0.111253
0.0031494 -0.112599
0.00338517 -0.104473
0.00329979 -0.106099
0.000537893 -0.109232
-0.00106805 -0.109939
0.00124647 -0.11061
-0.000352521 -0.109921
-0.00347443 -0.106346
-0.00342681 -0.104619
-0.00490863 -0.112775
-0.00573685 -0.115937
0.00424109 -0.103009
0.0016868 -0.103352
-0.000802085 -0.103844
-0.00378647 -0.10382
-0.00742899 -0.118039
-0.00657547 -0.118535
0.00550866 -0.117152
0.00514985 -0.115371
0.00640079 -0.114824
0.00622489 -0.113811
-0.0051924 -0.102922
-0.00524743 -0.105196
0.00498731 -0.105094
0.00729719 -0.101882
-0.00339256 -0.115854
0.00057717 -0.111549
0.0043558 -0.106955
-0.000513698 -0.111491
0.00498689 -0.11758
0.00183299 -0.104288
0.00115925 -0.10412
9.30035e-05 -0.10418
0.000549314 -0.104128
-0.000337205 -0.104318
-0.000873408 -0.104385
-0.0005556 -0.104381
-0.0015168 -0.104451
-0.00217314 -0.110367
-0.00393865 -0.111277
0.00507737 -0.112214
0.00274536 -0.111166
0.00203305 -0.10444
0.00239453 -0.104588
0.00303843 -0.105037
0.002875 -0.105683
0.00170973 -0.107281
0.00050162 -0.108574
-0.000606186 -0.108861
-0.00180345 -0.107573
-0.00300454 -0.105937
-0.00305266 -0.105294
-0.00223824 -0.104733
-0.00178763 -0.104579
-0.00552825 -0.11225
-0.00873328 -0.117112
0.0061629 -0.10057
-0.000437402 -0.103211
-0.0034294 -0.102714
-0.0105585 -0.122148
0.00904486 -0.121395
0.00810559 -0.116525
0.00660668 -0.112695
-0.00810582 -0.101485
0.00959967 -0.0998687
-0.00562418 -0.119224
0.00582569 -0.105347
-0.0105298 -0.0985244
-0.00462558 -0.106835
0.00154714 -0.114132
0.00133525 -0.104435
0.00094537 -0.104307
0.000343667 -0.104338
-0.000159778 -0.104437
-0.000544768 -0.104502
-0.000986026 -0.104612
-0.00274576 -0.109924
0.00308277 -0.110262
0.00173094 -0.104779
0.00183269 -0.105702
0.000329617 -0.107743
-0.000423851 -0.10798
-0.00177281 -0.105944
-0.00148452 -0.104952
-0.00532517 -0.109757
-0.00650917 -0.111206
-0.00745482 -0.112861
-0.0101736 -0.115325
-0.0161664 -0.123287
-0.0152488 -0.125647
0.0110386 -0.0895806
0.00219068 -0.100901
-0.00901381 -0.0948687
-0.013917 -0.127057
0.0132354 -0.126813
0.0130658 -0.123582
0.0121653 -0.119915
0.0104972 -0.11661
0.00779037 -0.112476
0.00731317 -0.110606
-0.0110647 -0.0951802
0.0125142 -0.0927536
-0.0118365 -0.126968
-0.00298245 -0.117436
0.0115517 -0.0964908
0.00796946 -0.123895
0.0131713 -0.129707
-0.00776301 -0.10293
0.00197224 -0.115058
0.000967364 -0.104614
0.00113261 -0.104758
0.000770201 -0.104452
0.000928907 -0.104494
0.000426035 -0.104437
0.00061694 -0.104426
1.98921e-05 -0.104499
0.000203105 -0.104471
-0.000250624 -0.104577
-0.000103006 -0.104547
-0.000580275 -0.104652
-0.000424287 -0.104597
-0.000827817 -0.10491
-0.000666276 -0.104757
-0.000855102 -0.10809
-0.00199086 -0.108789
-0.00379046 -0.109475
0.00493845 -0.109347
0.00373425 -0.109462
0.00146619 -0.108727
0.000545539 -0.108292
0.00136787 -0.105026
0.0013465 -0.105402
0.000972213 -0.106237
0.000469846 -0.106852
-0.000690419 -0.107086
-0.00098062 -0.106477
-0.00122869 -0.10561
-0.00109639 -0.105195
-0.00536531 -0.107614
-0.007332 -0.110079
-0.0115603 -0.113342
-0.0165277 -0.119702
-0.0199513 -0.12796
0.00691024 -0.0580216
0.00592412 -0.095346
0.000385489 -0.100837
-0.00435946 -0.0983212
-0.00813034 -0.0626154
-0.0177664 -0.133226
0.0182515 -0.133846
0.0167862 -0.123233
0.0101487 -0.113906
0.00682579 -0.108649
0.000937448 -0.0255794
-0.0102639 -0.072814
-0.00155069 -0.0244802
0.00884994 -0.0688654
-0.0104689 -0.130414
0.00884248 -0.100612
0.0152735 -0.0870286
0.0132693 -0.1336
-0.0147855 -0.0897324
-0.00428449 -0.106898
0.000662024 -0.104743
0.000552643 -0.104569
0.000385391 -0.104527
0.000153799 -0.104555
-7.24178e-05 -0.104608
-0.000258987 -0.104696
-0.000386827 -0.104885
-0.00179427 -0.107653
-0.00376868 -0.107559
0.00322364 -0.107813
0.00107994 -0.107632
0.000666253 -0.105258
-5.52276e-06 -0.106371
-0.000703849 -0.106478
0.00058036 -0.106873
-0.00017857 -0.106597
-0.000467799 -0.105406
-0.00338886 -0.106459
0.00340581 -0.106973
-0.00572575 -0.106233
-0.00651609 -0.107233
-0.00806384 -0.107738
-0.00920727 -0.109345
-0.0117691 -0.110287
-0.0140901 -0.112754
-0.0168876 -0.115111
-0.0200977 -0.118984
-0.0232404 -0.122935
0.00526721 -0.0614342
0.00202445 -0.0925683
-0.00190212 -0.094806
-0.0050443 -0.0661677
-0.0242593 -0.132974
-0.0232896 -0.136728
-0.0217713 -0.139701
-0.0203488 -0.142702
-0.0160552 -0.140751
0.0169931 -0.141655
0.0204566 -0.14256
0.0221907 -0.140089
0.0234303 -0.136516
0.0242697 -0.131852
0.0224765 -0.126119
0.0202765 -0.120533
0.0179274 -0.115725
0.0139693 -0.113092
0.0118871 -0.10949
0.00966516 -0.108443
0.00809067 -0.107932
0.00569177 -0.106835
0.0073961 -0.0257691
-9.47993e-05 -0.0465888
-0.00807502 -0.0683539
-0.00749827 -0.0252504
0.00664044 -0.0643097
-0.000191147 -0.0452581
-0.0111244 -0.138194
-0.00505511 -0.135816
0.00868621 -0.103698
0.012698 -0.139172
-0.00306511 -0.112172
0.00738667 -0.134619
0.000331666 -0.104931
0.00030811 -0.105079
0.000376118 -0.10478
0.000404325 -0.104662
0.000395465 -0.104714
0.00040238 -0.104598
0.000358378 -0.104568
0.000383496 -0.10458
0.000292631 -0.104561
0.000209845 -0.104569
0.000252698 -0.104565
0.000120331 -0.104588
2.97502e-05 -0.104613
7.48983e-05 -0.1046
-4.91832e-05 -0.104646
-0.000120554 -0.104695
-8.67799e-05 -0.104669
-0.000164632 -0.104762
-0.000184892 -0.104867
-0.000178833 -0.104811
-0.000155887 -0.105017
-9.17411e-05 -0.105259
-0.000129418 -0.105125
-0.00395722 -0.105915
-0.00467502 -0.106015
0.00465093 -0.106607
0.00393909 -0.106498
-0.00261204 -0.107279
-0.00148867 -0.106056
0.00219435 -0.107256
0.00153234 -0.107152
0.00166697 -0.10642
0.00011751 -0.105552
-3.45523e-05 -0.105828
0.000154145 -0.106165
-2.98719e-05 -0.105784
-0.00277967 -0.105747
0.00289639 -0.105972
-0.00196663 -0.105696
-0.00229994 -0.105709
0.00242179 -0.105934
0.00209288 -0.10592
-0.00121511 -0.105522
-0.000532138 -0.105546
-0.000886004 -0.105529
0.00137554 -0.105934
0.00105472 -0.105928
0.000729352 -0.105928
0.000997918 -0.106365
-0.000762461 -0.105853
0.00236716 -0.106455
-0.00222439 -0.106262
-0.00047962 -0.105988
0.000521285 -0.105783
0.00207246 -0.107966
-0.00303309 -0.108272
0.00447062 -0.107529
-0.00457851 -0.106663
-0.000436839 -0.105076
-0.000326811 -0.104772
-0.00017125 -0.104646
3.73449e-05 -0.10458
0.000274119 -0.104536
0.000481997 -0.104536
0.000597567 -0.104643
0.000751739 -0.104934
0.00839383 -0.128046
-0.00366074 -0.12228
-0.000721321 -0.0423006
-0.000276127 -0.0447242
0.00927405 -0.109837
0.0144702 -0.117696
0.0187833 -0.129392
0.0176952 -0.137406
-0.0155669 -0.13458
-0.0191318 -0.131026
-0.00901375 -0.0857453
0.00958576 -0.0801619
-0.0201436 -0.124317
-0.0135814 -0.116023
-0.00852796 -0.111604
-0.0061749 -0.108574
0.000201592 -0.107285
-0.000655828 -0.10705
-0.0132546 -0.0890535
0.0137186 -0.085991
0.00141754 -0.100433
-0.00185709 -0.105275
-0.00150987 -0.10683
0.00144716 -0.106572
0.00203255 -0.105055
0.000929942 -0.109304
0.00549607 -0.11107
-0.00458355 -0.110701
-0.00107267 -0.109088
-0.00114628 -0.104751
-0.000802449 -0.104522
-0.000313062 -0.104492
3.48281e-05 -0.104381
0.000677062 -0.104298
0.00118704 -0.104345
0.00144605 -0.104592
-0.00275746 -0.109067
0.00734262 -0.12122
-0.00168021 -0.114636
-0.00860777 -0.121704
0.00989964 -0.0972235
-0.0067447 -0.100373
0.00776 -0.114357
0.00884806 -0.119193
-0.00203005 -0.103701
0.00231208 -0.102212
-0.0118202 -0.121075
-0.00652389 -0.113826
-0.00594367 -0.10511
0.00569188 -0.105131
-0.00241085 -0.104344
-0.00433665 -0.104974
-0.00206122 -0.108167
0.00195078 -0.107862
0.00410777 -0.104772
0.00261086 -0.104226
0.00474436 -0.113185
-0.00335383 -0.11172
-0.000847119 -0.104249
0.000216828 -0.103936
0.00175753 -0.11378
0.00233979 -0.10937
0.00256201 -0.113789
-0.00307149 -0.114598
0.00164068 -0.111856
-0.00108979 -0.110713
-0.000960887 -0.11042
0.000158649 -0.110775
-0.00411815 -0.113947
-0.00899237 -0.10454
0.00240201 -0.141184
-0.00436908 -0.122768
0.00161687 -0.12873
0.000123787 -0.139332
0.0031741 -0.120832
-0.00235563 -0.141082
0.0130661 -0.0989488
0.00636516 -0.115478
-5.08592e-05 -0.139207
0.000487221 -0.125835
0.00298529 -0.112632
0.00306603 -0.0544304
0.00750933 -0.0633011
0.00401696 -0.0523167
0.0122722 -0.0752509
-0.00358011 -0.0284401
3.12371e-05 -0.0347551
0.00119751 -0.0448089
-0.000753236 -0.044295
0.00239112 -0.0530178
-0.00424232 -0.0343656
-0.00225968 -0.0366017
-0.00607404 -0.0275165
0.00398492 -0.0424395
0.00702841 -0.0494879
-0.00847597 -0.0220669
-0.00456279 -0.0331899
-0.00391982 -0.057201
-0.00411153 -0.0532616
-0.00819034 -0.0660309
-0.00127369 -0.0456505
0.00362461 -0.0285243
-1.10616e-05 -0.0348656
-0.0132696 -0.0784916
-0.00355805 -0.0562274
9.9028e-05 -0.0461673
0.00406145 -0.035254
0.00607587 -0.027882
0.00219995 -0.0373102
0.00847589 -0.0223518
-0.00397379 -0.0425847
-0.00700285 -0.0496751
0.00408395 -0.0345852
-0.00315194 -0.0845643
0.00245355 -0.0909462
0.00277182 -0.0775615
0.0012174 -0.0993728
0 0
0 0
-0.00263836 -0.0396957
-0.00755524 -0.0771559
-0.00561991 -0.0904175
0.00340938 -0.0812063
-0.0026781 -0.0756231
-0.00273291 -0.0894314
0.0028008 -0.0360638
0 0
-0.0149863 -0.0612589
-0.00154079 -0.0987994
0.00624435 -0.0864893
0.00778531 -0.0716098
-0.0106189 -0.0982562
-0.0107998 -0.0986458
-0.00376764 -0.108011
-0.0164732 -0.0901213
0.00249399 -0.116702
-0.0115039 -0.096911
-0.0137246 -0.091034
0.0138796 -0.0932811
0.00886778 -0.101302
0.0146772 -0.0936692
0.0024889 -0.110056
0.0166861 -0.0881131
0.0145208 -0.0872437
0.0130867 -0.0937776
0.0126373 -0.0797229
0.0128699 -0.0792682
0.00774413 -0.0671322
0.00402375 -0.05581
0.0119228 -0.0781868
-0.0129532 -0.0816959
-0.00922419 -0.0709809
-0.0137802 -0.0821582
-0.00551431 -0.059426
-0.0125982 -0.0818836
-0.00399497 -0.0451153
-0.00783697 -0.0618825
-0.00437562 -0.0419688
-0.00982786 -0.0748958
0.00145016 -0.0142642
0.000669613 -0.0356069
-0.00467623 -0.0532528
-0.00158833 -0.100321
-0.00129488 -0.0998107
-0.00387029 -0.0967854
-0.000109176 -0.100797
-0.00695083 -0.0936112
-0.00165382 -0.100412
0.000897974 -0.100549
0.00283996 -0.0989876
0.00462013 -0.0939581
0.0017362 -0.0985241
0.0080942 -0.0892349
0.00393139 -0.0988169
0.00276241 -0.0417022
0.0036394 -0.0384032
0.00722149 -0.057073
-0.00171975 -0.0138338
0.00940913 -0.0692923
0.00332525 -0.0498353
-0.00149266 -0.0338699
-0.0110555 -0.0977077
-0.00783167 -0.102463
-0.00342902 -0.108229
-0.00529449 -0.106119
0.0134082 -0.0915696
0.00848082 -0.101159
0.0030702 -0.108376
0.00345055 -0.107893
-0.0123081 -0.0942649
-0.00945721 -0.100514
-0.00686667 -0.104202
-0.00836815 -0.102137
-0.00944336 -0.100188
-0.00980062 -0.0987329
-0.0111658 -0.0964972
-0.00774502 -0.100716
-0.009141 -0.098225
-0.0124102 -0.0920692
-0.00745147 -0.102959
0.0100172 -0.0983437
0.00874322 -0.0997901
0.00850299 -0.10102
0.00694698 -0.103151
0.00576659 -0.103497
0.00784068 -0.102546
-0.00607898 -0.101747
-0.00670707 -0.102349
-0.00626521 -0.103515
-0.00504143 -0.103767
-0.00508728 -0.101796
-0.00441195 -0.102788
-0.00356195 -0.103425
-0.00272248 -0.103273
0.00201699 -0.102841
0.000866568 -0.102815
0.00069236 -0.103295
-5.16663e-05 -0.10361
-0.00132839 -0.103473
0.000869122 -0.103677
0.00579989 -0.102568
0.00699702 -0.10107
0.00525971 -0.101932
0.00813829 -0.0991779
0.0042332 -0.101552
0.00347569 -0.10258
0.00447379 -0.103678
0.00296673 -0.103187
0.00180164 -0.103638
0.00225284 -0.104013
0.00101901 -0.10391
0.00293014 -0.103549
0.00349631 -0.103687
0.00485607 -0.00737476
0.00478242 -0.018886
0.00371227 -0.00982853
0.00507739 -0.0277604
0 0
0 0
0.00595833 -0.00596642
0.0101475 -0.0164408
0.00815095 -0.02052
0.00916882 -0.0119538
-0.0100852 -0.058218
-0.0122192 -0.0632743
-0.00921003 -0.0118455
-0.00829263 -0.0201149
-0.0101494 -0.0162597
-0.0055722 -0.0265631
0.0101268 -0.0579668
0.0122239 -0.0629403
-0.00599655 -0.00594024
-0.00385271 -0.00966102
-0.00512821 -0.018363
-0.00489294 -0.00730243
-0.0117539 -0.0852145
-0.00593826 -0.0966675
-0.00648631 -0.098256
-0.00418478 -0.0993229
-0.00682203 -0.0964734
-0.0010362 -0.100691
-0.00934403 -0.0908079
-0.00810115 -0.0978834
-0.00538316 -0.1001
-0.0109608 -0.0899024
-0.0119511 -0.0901438
-0.010317 -0.0945192
-0.0126791 -0.0859049
-0.0107727 -0.0837753
-0.00889288 -0.0673174
-0.0116401 -0.0784097
-0.0106297 -0.0746148
0.00971055 -0.0696066
0.0107484 -0.0741865
0.00753272 -0.0631121
0.0126531 -0.0820011
0.0109287 -0.0782959
0.0121043 -0.0903304
0.0127887 -0.0865121
0.0118534 -0.0845666
0.0133301 -0.0894491
0.0105168 -0.0850932
0.0107655 -0.0936452
0.0114307 -0.0950583
0.00673197 -0.0990865
0.00467575 -0.0997594
0.00437471 -0.100655
0.00425087 -0.0993106
0.00185705 -0.100527
0.00230752 -0.101448
0.0087254 -0.0971093
0.00880266 -0.0921032
0.00673081 -0.0964337
0.00929405 -0.0943971
0.0112525 -0.0971557
0.0101894 -0.0991652
0.0124123 -0.09423
0.00626513 -0.104518
0.0112406 -0.096767
0.00943296 -0.100465
0.00721979 -0.10358
-0.00115878 -0.102621
-0.00280775 -0.102309
-0.00189163 -0.103047
-0.00445855 -0.101377
0.000252234 -0.102185
-0.000730575 -0.101055
-0.00285528 -0.101035
2.03955e-05 -0.101519
0.00131735 -0.131673
-0.00244535 -0.131351
-0.00179333 -0.136098
-0.00197477 -0.123433
-0.00473681 -0.129051
-0.00381607 -0.138476
0.00235826 -0.136875
0.00499863 -0.133963
0.00358862 -0.127746
0.00437274 -0.113493
0.00144737 -0.119222
0.00319917 -0.121202
-0.000616632 -0.117905
0.00688556 -0.123545
0.00724514 -0.109279
0.0056334 -0.108508
0.0153802 -0.0815738
0.014383 -0.068935
0.0127912 -0.073217
0.00901969 -0.0696325
0.0108429 -0.0668448
0.0162141 -0.0772783
-0.0143628 -0.0693145
-0.0160528 -0.0837806
-0.0131961 -0.0752787
-0.0112384 -0.0687816
-0.0102018 -0.0732668
-0.0159637 -0.0776408
-0.0138951 -0.094547
-0.0140875 -0.0957793
-0.0101099 -0.100479
-0.0177848 -0.0904402
-0.0134208 -0.0990392
-0.0058399 -0.108645
-0.00694133 -0.104807
-0.0138743 -0.0935434
-0.015535 -0.0897681
-9.95446e-05 -0.11427
0.002871 -0.118347
-0.000418514 -0.11265
0.00592917 -0.124701
0.00564324 -0.122377
-0.000921399 -0.111484
-0.00409584 -0.107176
-0.0034151 -0.109431
0.000279037 -0.116847
-0.0112372 -0.0973395
-0.0127478 -0.094153
-0.0128108 -0.0944609
-0.0128953 -0.0929613
-0.0135409 -0.0898308
-0.0142037 -0.0903247
-0.0131353 -0.094187
-0.00746207 -0.102659
-0.0091415 -0.100483
0.00543189 -0.105955
0.00268541 -0.110901
0.00584228 -0.106618
-0.000814556 -0.116172
0.00882213 -0.102129
0.00890513 -0.100741
0.00576334 -0.104966
0.0142203 -0.0953736
0.0167344 -0.0919995
0.0162159 -0.0909595
0.0160525 -0.0955903
0.0180947 -0.0891497
0.0159234 -0.0874578
0.0157628 -0.090013
0.0120913 -0.097931
0.0107791 -0.101499
0.0147259 -0.0900971
0.0141945 -0.0906422
0.0134558 -0.0934711
0.0140827 -0.0864862
0.01398 -0.0897892
0.0114616 -0.0968228
0.0114874 -0.0969869
0.0151332 -0.0902489
0.0148643 -0.0870818
0.0149338 -0.0835664
0.015247 -0.0829864
0.0126325 -0.0780253
0.00959773 -0.071733
0.0145453 -0.0835844
0.0140938 -0.0833131
0.0139461 -0.0836991
0.0134911 -0.0831384
0.0105265 -0.0741097
-0.0136791 -0.0811378
-0.0161638 -0.085571
-0.0154584 -0.0859231
-0.0148766 -0.0863239
-0.0109561 -0.0754992
-0.0142232 -0.0856287
-0.0139788 -0.0866672
-0.0114874 -0.0771419
-0.0134564 -0.085639
-0.00624248 -0.104432
-0.00386875 -0.107559
-0.00562463 -0.105431
-0.00582176 -0.105346
-0.0031138 -0.108691
-0.00784156 -0.102661
0.00282094 -0.10894
-2.4442e-05 -0.11282
-0.000441021 -0.114006
0.000567119 -0.111698
-0.00229676 -0.115803
-0.00339238 -0.119404
0.00581289 -0.104663
0.00592962 -0.104622
0.00329522 -0.108037
0.00594065 -0.104499
0.000878279 -0.111212
0.00867813 -0.100815
0.0103559 -0.0985474
0.00731969 -0.102945
0.00196547 -0.109834
0.00497779 -0.106032
0.00779239 -0.102719
0.00916468 -0.100552
-0.000474375 -0.11291
0.00347916 -0.108018
0.00423885 -0.107205
0.00156239 -0.110345
-0.000819546 -0.11143
0.00170977 -0.114523
-0.00089034 -0.111322
0.00474569 -0.118387
0.00445756 -0.117624
-0.000716504 -0.111439
-0.00100438 -0.11121
0.00274659 -0.124148
0.00470424 -0.131868
0.00558806 -0.128037
0.00209374 -0.135682
0.00525057 -0.137746
0.00812214 -0.130955
-0.000350106 -0.12081
-0.00332426 -0.13087
-0.000112129 -0.132878
-0.00114069 -0.125921
-0.00233232 -0.136956
-0.00325527 -0.116687
-0.00590093 -0.126704
-0.00490753 -0.134116
-0.0102257 -0.110585
-0.00828844 -0.121046
-0.0062726 -0.114239
-0.00768858 -0.130433
-0.010793 -0.125864
0.0102186 -0.137049
0.00887508 -0.140959
0.0116045 -0.142403
-0.0142297 -0.119744
-0.0165726 -0.109966
0.0143372 -0.143739
0.0107921 -0.134016
0.012571 -0.109333
0.00917994 -0.108354
0.0093318 -0.116979
0.00770157 -0.130329
0.0107937 -0.125779
-0.00840158 -0.136951
-0.0107233 -0.142052
-0.00770632 -0.14148
-0.0135974 -0.143413
0.0139686 -0.119749
0.016942 -0.110102
-0.00783998 -0.131363
0.0159516 -0.11441
0.0177704 -0.113382
0.015782 -0.112093
0.0191806 -0.114532
0.00485456 -0.105595
0.00414155 -0.105501