<?xml version="1.0"?>
<VTKFile type="UnstructuredGrid">
  <UnstructuredGrid>
  <Piece NumberOfPoints="3487"  NumberOfCells="1698">
    <Points>
      <DataArray type="Float64" NumberOfComponents="3" format="ascii">
39.9722 48.4478 0
60.0286 48.4465 0
40.6337 48.5788 0
41.2966 48.701 0
41.9605 48.8141 0
42.6257 48.9182 0
43.2922 49.0133 0
43.9598 49.0993 0
44.6284 49.1763 0
45.2979 49.2442 0
45.9682 49.303 0
46.6393 49.3528 0
47.3109 49.3936 0
47.9829 49.4253 0
48.6553 49.4479 0
49.328 49.4614 0
50.0007 49.4659 0
50.6735 49.4613 0
51.3461 49.4477 0
52.0185 49.425 0
52.6906 49.3932 0
53.3621 49.3524 0
54.0331 49.3025 0
54.7034 49.2435 0
55.3729 49.1755 0
56.0415 49.0984 0
56.709 49.0123 0
57.3754 48.9172 0
58.0406 48.8131 0
58.7044 48.6999 0
59.3671 48.5776 0
39.99 49.4645 0
39.9903 49.2104 0
39.9872 48.9563 0
39.9811 48.7021 0
19.8437 69.3193 0
39.9865 49.7261 0
39.9796 49.9877 0
39.9636 50.3661 0
39.9403 50.744 0
39.894 51.29 0
39.8326 51.8345 0
39.7174 52.6191 0
39.5711 53.3984 0
39.3047 54.5144 0
38.9745 55.6134 0
38.6966 56.3958 0
38.3862 57.166 0
38.0441 57.9226 0
37.6709 58.6644 0
37.077 59.7089 0
36.4213 60.7159 0
35.7064 61.6816 0
-0.0799602 49.2426 0
17.2345 69.1343 0
14.6716 68.6114 0
12.1984 67.7597 0
9.85715 66.5933 0
7.68768 65.132 0
11.6004 31.4255 0
0.13356 46.4247 0
0.745074 43.6663 0
1.74286 41.023 0
0 0 0
0.101797 3.69539 0
0.503499 7.38176 0
1.19417 11.031 0
2.16788 14.6142 0
3.08129 17.2501 0
49.9996 -0.512976 0
5.1116 0 0
10.2232 0 0
15.3348 0 0
100 0 0
57.4184 -0.497071 0
64.8372 -0.43896 0
72.2449 -0.316588 0
88.4007 31.4243 0
99.8984 3.69541 0
99.4967 7.3815 0
98.8061 11.0307 0
97.8324 14.6138 0
96.919 17.2496 0
100.08 49.242 0
99.8667 46.4242 0
99.2553 43.6657 0
98.2574 41.0223 0
80.1562 69.3184 0
99.9201 51.8523 0
99.4193 54.4195 0
98.5869 56.8989 0
97.4375 59.2485 0
95.9913 61.4277 0
60.0105 49.4631 0
77.645 69.1747 0
75.1714 68.7181 0
72.7744 67.9555 0
70.4917 66.899 0
69.0001 66.0057 0
67.5915 64.9864 0
66.2766 63.8489 0
65.0653 62.6015 0
64.2937 61.6804 0
63.5788 60.7146 0
62.9232 59.7076 0
62.3293 58.6631 0
61.614 57.1647 0
61.0257 55.6121 0
60.6956 54.5132 0
60.4293 53.3971 0
60.283 52.6177 0
60.0104 49.209 0
60.0134 48.9549 0
60.0196 48.7007 0
52.8119 29.7276 0
26.5608 36.5518 0
40.3576 23.8667 0
24.9787 22.1992 0
71.8916 22.2102 0
72.6988 43.5818 0
54.7903 23.6822 0
15.2718 46.993 0
38.3549 49.0711 0
23.5095 64.8093 0
7.66895 7.6925 0
91.9722 7.66995 0
29.116 56.4879 0
37.1658 51.5371 0
28.083 46.8185 0
29.7199 47.7805 0
71.5185 46.3048 0
30.9758 48.6795 0
70.523 47.7808 0
31.6397 45.2758 0
30.8848 46.7263 0
70.0658 46.296 0
68.978 44.6259 0
31.2756 49.773 0
30.8823 50.9925 0
28.1735 48.7701 0
45.3139 40.9262 0
53.8394 40.547 0
56.02 40.0959 0
73.1361 47.0544 0
70.1279 49.0193 0
68.3187 42.0622 0
32.3242 42.393 0
26.1348 45.3019 0
27.6809 44.3121 0
30.3151 42.9477 0
70.4006 42.2588 0
72.6785 45.5709 0
44.8538 42.718 0
51.4294 41.6246 0
55.4048 42.2105 0
32.4408 48.7188 0
68.568 49.2585 0
39.4879 41.7084 0
35.4503 43.0199 0
32.8957 46.1741 0
33.5721 47.9202 0
67.1096 47.863 0
67.9822 46.1023 0
65.0616 42.6824 0
60.4082 41.3455 0
32.3474 51.0328 0
28.1933 50.6241 0
41.7919 36.9347 0
46.8288 37.3382 0
52.0465 39.5099 0
58.666 38.8795 0
26.5759 51.5144 0
24.2741 49.9466 0
74.2491 49.5577 0
71.1861 50.2654 0
69.1682 51.8476 0
67.9424 51.9843 0
59.7457 36.0019 0
66.4856 40.313 0
34.1241 40.6898 0
36.0494 35.4364 0
23.1702 46.7848 0
21.6481 42.9011 0
28.3679 41.4335 0
74.3161 44.332 0
76.6563 48.1629 0
43.0599 43.3056 0
46.2722 42.5918 0
49.9684 42.6395 0
48.4345 42.4225 0
51.7621 43.6767 0
54.0857 43.7923 0
52.9044 44.0879 0
56.268 43.3409 0
33.8723 49.0144 0
33.7663 50.5253 0
66.5575 51.3379 0
66.6071 49.3498 0
41.8382 43.5428 0
40.7102 43.28 0
38.4701 42.886 0
37.1512 43.4893 0
35.3513 45.1927 0
34.3268 46.4685 0
66.0221 46.1917 0
65.0132 44.9219 0
63.1804 43.1723 0
61.6947 42.7248 0
58.8717 43.1399 0
57.5337 43.4565 0
33.3729 51.7458 0
29.1318 53.3415 0
40.8545 30.6641 0
50.8839 35.6525 0
55.6564 33.936 0
23.519 53.0485 0
76.9537 51.5193 0
70.2706 52.9498 0
66.4341 52.5779 0
65.4458 34.8221 0
30.985 34.2448 0
19.4249 46.8955 0
26.1483 39.6751 0
71.967 33.7695 0
72.0374 41.0217 0
77.491 44.927 0
43.1711 44.7474 0
45.8123 44.3839 0
48.7658 44.4746 0
51.4429 45.1029 0
53.7673 45.2185 0
56.215 45.0387 0
34.898 49.7269 0
65.0986 49.9422 0
40.8206 44.7216 0
38.3732 45.0615 0
36.029 46.9401 0
64.1394 46.6841 0
61.6442 44.9674 0
58.8199 44.8374 0
36.0459 52.0021 0
34.8904 52.7606 0
33.4716 53.2673 0
31.8608 55.0519 0
26.0297 58.4956 0
22.9368 56.8921 0
32.4355 22.4005 0
47.0443 26.3488 0
63.1071 22.7279 0
19.9349 54.5964 0
80.2404 53.8625 0
75.8525 55.3811 0
71.9865 55.7451 0
69.1332 55.0762 0
65.8061 53.5874 0
64.1284 53.4376 0
68.1148 28.6826 0
26.8208 29.7789 0
17.1928 51.3277 0
14.5894 42.0558 0
22.4438 33.7451 0
84.9256 46.4554 0
84.7717 51.5907 0
75.1421 37.5937 0
81.2207 43.5597 0
42.4593 46.0775 0
41.4193 45.8856 0
44.9678 45.9233 0
43.6819 45.8402 0
47.7375 45.8645 0
46.3874 45.7971 0
50.6201 46.1776 0
49.2727 46.0816 0
53.05 46.5725 0
51.7629 46.5888 0
55.5116 46.1847 0
54.2321 46.2768 0
58.0592 46.1379 0
56.7782 46.3005 0
36.3691 48.2616 0
36.0179 49.2611 0
35.9117 50.7732 0
63.4061 51.7076 0
63.8449 50.6942 0
63.8948 48.7045 0
63.8402 47.803 0
40.2906 45.6222 0
39.3748 45.8007 0
38.0547 46.4031 0
37.3942 46.9855 0
62.831 46.5328 0
62.0142 46.21 0
60.5274 45.7637 0
59.3982 45.8207 0
38.0371 52.2104 0
36.1442 53.5251 0
34.0255 56.376 0
29.5295 59.4243 0
22.791 60.9443 0
21.7641 15.219 0
39.986 15.8999 0
48.9024 11.1649 0
56.9276 16.6209 0
76.6152 15.4412 0
15.5628 56.6234 0
84.5979 57.0567 0
73.4812 59.0774 0
66.5631 55.243 0
62.4855 53.2148 0
82.9427 7.75254 0
79.704 22.3656 0
16.3035 7.83781 0
18.3813 22.0944 0
10.6784 46.3328 0
16.6137 35.6687 0
15.5806 30.116 0
89.4594 49.1987 0
83.2542 30.9511 0
81.5596 38.9436 0
41.9297 46.9787 0
44.2568 47.2537 0
46.8938 47.4042 0
49.5921 47.5676 0
52.2272 47.6473 0
54.7944 47.5389 0
57.3559 47.2842 0
37.3833 49.3078 0
37.9032 50.9803 0
62.2018 50.4698 0
62.5858 48.5542 0
39.9731 46.9654 0
38.3959 47.7257 0
38.5083 48.4954 0
61.7681 48.1925 0
61.7141 47.3299 0
59.7674 47.065 0
38.8744 50.7447 0
61.3628 50.6774 0
39.1728 52.526 0
38.4355 53.0822 0
38.1373 54.1895 0
36.982 54.9473 0
36.468 56.7173 0
34.8111 58.2311 0
33.2931 60.08 0
30.6646 62.1763 0
27.8927 64.3136 0
27.188 7.62235 0
38.663 8.04491 0
59.8701 8.26198 0
71.7489 7.68716 0
19.1354 64.2372 0
14.8427 62.4893 0
10.6495 59.6901 0
6.20815 56.6348 0
5.93442 50.7087 0
94.303 51.8028 0
93.4017 56.8541 0
89.4245 60.2083 0
84.6774 62.7339 0
79.5737 64.4231 0
74.6683 63.4771 0
70.3521 62.2159 0
66.9063 60.7797 0
65.2768 58.1171 0
62.7685 56.8037 0
62.1168 55.2783 0
61.8186 54.171 0
61.0961 52.4402 0
93.5167 14.462 0
89.7922 20.5655 0
86.0778 24.8398 0
6.22945 14.4568 0
13.0364 24.3182 0
9.79177 20.5594 0
5.71676 45.1496 0
5.63581 40.2144 0
12.337 34.3869 0
94.2788 46.6924 0
88.1066 36.7053 0
93.3867 41.9796 0
41.0923 47.7439 0
40.4311 47.6172 0
42.1335 47.9358 0
43.4648 48.1348 0
42.7978 48.0443 0
44.7514 48.218 0
46.091 48.3447 0
45.4204 48.2904 0
47.4418 48.4122 0
48.7861 48.4664 0
48.1136 48.4484 0
50.134 48.5625 0
51.4792 48.5442 0
50.8067 48.5624 0
52.7666 48.5279 0
54.109 48.4372 0
53.4384 48.4916 0
55.389 48.345 0
56.7249 48.1819 0
56.058 48.2725 0
58.0069 48.0194 0
59.3326 47.7841 0
58.6713 47.9107 0
39.3574 51.1989 0
39.3035 51.7441 0
60.9654 51.6584 0
60.9116 51.1132 0
38.0031 50.0715 0
39.1282 49.2594 0
61.8015 49.6631 0
61.8229 49.0949 0
60.9836 49.3019 0
39.5144 47.7953 0
39.1697 47.9132 0
60.9505 47.8703 0
60.4629 47.7266 0
39.4574 50.2895 0
60.5113 50.3064 0
39.4822 49.6498 0
39.477 49.9114 0
60.4916 49.9283 0
60.4864 49.6667 0
39.6362 49.0736 0
39.627 48.5656 0
39.6347 48.8195 0
60.5075 49.0978 0
60.509 48.8438 0
60.5169 48.59 0
61.005 48.7333 0
39.282 48.6833 0
60.9624 49.8705 0
38.9743 49.8354 0
60.8972 47.0072 0
39.0566 47.1431 0
62.6408 49.4563 0
37.0316 50.3077 0
61.7632 51.4841 0
38.7744 51.6539 0
58.6376 47.1215 0
56.0743 47.4466 0
53.5146 47.631 0
50.9399 47.6636 0
48.2443 47.4716 0
45.5431 47.3367 0
42.9703 47.1704 0
40.8892 46.7865 0
89.1853 44.3707 0
10.9117 40.5175 0
13.2798 16.0416 0
85.8789 16.2418 0
63.2081 54.9452 0
68.9767 58.0873 0
79.0197 59.4443 0
89.3611 54.4694 0
11.7089 52.4267 0
19.1571 59.2655 0
66.6817 15.4794 0
30.7916 15.2174 0
26.2755 61.73 0
32.1065 57.6077 0
34.9886 54.2833 0
37.2996 52.7668 0
62.5314 47.6523 0
37.7346 48.3077 0
75.8953 28.3953 0
20.5602 28.3135 0
47.9196 18.9686 0
60.1583 44.52 0
63.131 45.4136 0
37.0531 45.6636 0
39.6923 44.4581 0
65.1492 47.9536 0
65.0494 51.9316 0
34.7917 51.2385 0
35.0035 48.2156 0
57.4812 45.1543 0
54.9489 44.9228 0
52.5856 45.5141 0
50.3005 44.6917 0
47.2312 44.2576 0
44.3931 44.51 0
41.949 44.9846 0
74.336 42.3444 0
80.2929 48.4911 0
17.9902 42.9681 0
21.2783 50.4008 0
34.4752 29.3952 0
59.9629 29.9369 0
67.8189 53.2239 0
73.4357 52.6458 0
54.4553 38.4325 0
46.516 32.5926 0
26.1887 55.0092 0
31.9538 52.2529 0
69.7417 39.6962 0
30.9991 40.066 0
57.5862 41.759 0
63.2306 40.9314 0
66.8955 44.431 0
33.6495 44.7225 0
37.2483 41.3151 0
41.7273 42.1013 0
68.0661 50.745 0
32.7407 49.8128 0
53.223 42.6617 0
49.6366 40.5875 0
74.2963 46.3203 0
25.7332 42.7979 0
71.976 47.7889 0
26.5364 47.8077 0
69.0703 47.7727 0
32.1407 47.6252 0
71.0615 44.8205 0
29.6287 45.8283 0
29.8104 49.7333 0
88.1221 34.0702 0
96.8927 38.5493 0
91.2832 35.3725 0
92.2327 38.2163 0
96.0808 37.3926 0
88.5067 40.4141 0
3.10757 38.5498 0
11.9176 32.8604 0
10.0275 34.6759 0
3.91962 37.3932 0
8.32166 37.1443 0
11.7036 36.6982 0
11.4133 22.4407 0
11.0141 26.2704 0
9.39142 24.3984 0
11.9081 28.7175 0
4.1453 19.8262 0
5.35651 22.3335 0
8.24723 22.6563 0
11.5342 18.2978 0
13.1551 20.1814 0
8.00861 17.5127 0
6.96664 20.1941 0
5.1846 17.138 0
6.71008 24.763 0
7.81796 26.5313 0
4.19771 14.5359 0
9.75229 15.2523 0
87.9359 22.7042 0
90.4008 24.4 0
88.5432 26.5275 0
91.5451 22.6584 0
95.8549 19.8257 0
94.6436 22.3329 0
87.6705 29.0221 0
[...]
    <PointData>
      <DataArray type="Float64" NumberOfComponents="2" Name="Displacement" format="ascii">
-0.00200917 -0.536739
0.00284742 -0.538064
-0.000639192 -0.53623
0.000312502 -0.535604
0.000813669 -0.535173
0.00116158 -0.534805
0.00137791 -0.534534
0.00151892 -0.53435
0.00157955 -0.534189
0.00158988 -0.534079
0.00155124 -0.534015
0.0014775 -0.533989
0.00136824 -0.533967
0.00123523 -0.533969
0.0010809 -0.533993
0.000914225 -0.534036
0.000736644 -0.534075
0.000556827 -0.534127
0.000379293 -0.534196
0.000210311 -0.534282
5.65557e-05 -0.534366
-7.79715e-05 -0.534474
-0.000186093 -0.534608
-0.000262041 -0.534775
-0.000291214 -0.534954
-0.000274496 -0.535185
-0.000197011 -0.535475
-5.08463e-05 -0.535836
0.000252405 -0.536217
0.000684512 -0.536733
0.00149314 -0.537446
-0.00996668 -0.53553
-0.00812924 -0.535624
-0.00630162 -0.535787
-0.0044019 -0.536139
-0.156273 -0.680684
-0.0117392 -0.535519
-0.0135142 -0.535549
-0.0161009 -0.535644
-0.0187094 -0.535804
-0.0224886 -0.536146
-0.0263118 -0.536611
-0.0319168 -0.537503
-0.0375883 -0.53865
-0.0458743 -0.540768
-0.0542094 -0.543416
-0.0602168 -0.545651
-0.0661942 -0.548161
-0.0721096 -0.550958
-0.0779387 -0.554011
-0.086167 -0.558871
-0.0941205 -0.564224
-0.101719 -0.570044
-0.0799602 -0.757419
-0.154949 -0.694605
-0.152046 -0.707068
-0.147936 -0.717942
-0.142854 -0.72724
-0.137137 -0.735074
0.104052 -0.472309
-0.0661997 -0.755598
-0.0499749 -0.750702
-0.031116 -0.742242
0 0
-0.0374718 -0.0338901
-0.0528026 -0.0560276
-0.0545988 -0.0738343
-0.0449143 -0.0957705
-0.0318408 -0.117193
-0.000441906 -0.512976
0 0
0 0
0 0
0 0
0.0299648 -0.497071
0.0603743 -0.43896
0.0797192 -0.316588
-0.102906 -0.473482
0.0376252 -0.0338419
0.0530415 -0.0562302
0.0548792 -0.0741479
0.0452265 -0.0961804
0.0321544 -0.117614
0.0802054 -0.758004
0.0664436 -0.75617
0.0503083 -0.751257
0.0313967 -0.742904
0.156205 -0.681614
0.091205 -0.758197
0.100767 -0.756912
0.109325 -0.754746
0.117017 -0.751499
0.124198 -0.74745
0.0105332 -0.53689
0.155704 -0.667035
0.153157 -0.651543
0.148343 -0.635462
0.141173 -0.619233
0.134783 -0.608176
0.12727 -0.597416
0.118646 -0.587146
0.109029 -0.577488
0.101827 -0.571274
0.0942508 -0.565477
0.0863201 -0.56014
0.078115 -0.555293
0.0664207 -0.549486
0.0544774 -0.544714
0.0461746 -0.542095
0.0379429 -0.540004
0.0322933 -0.538858
0.0087508 -0.537008
0.00697431 -0.53719
0.00508551 -0.537543
-0.0104568 -0.52155
0.0465286 -0.519456
0.0362274 -0.501408
0.0616297 -0.407184
-0.0620631 -0.431248
-0.00945157 -0.562213
-0.0187083 -0.51403
-0.0434679 -0.63797
-0.00795651 -0.544421
-0.128784 -0.656964
-0.039727 -0.072222
0.0390534 -0.0736223
-0.0679917 -0.60793
-0.0250288 -0.553194
-0.00767395 -0.575917
-0.0106444 -0.574747
0.00440877 -0.573272
-0.0140359 -0.573771
0.0114502 -0.576773
0.00565708 -0.558313
-0.00293214 -0.566406
0.00222855 -0.568746
-0.00793974 -0.558501
-0.0202157 -0.576573
-0.0285001 -0.582477
-0.0192561 -0.584852
0.00908816 -0.530691
-0.00712918 -0.531277
-0.0120177 -0.531194
0.0116965 -0.582398
0.0182107 -0.580504
-0.0205316 -0.546521
0.0195984 -0.545566
-0.00215824 -0.57398
0.0062245 -0.564159
0.0162677 -0.551509
-0.0188123 -0.550732
0.0020251 -0.573059
0.0077457 -0.531799
-0.00201101 -0.531694
-0.00802878 -0.532467
-0.0122214 -0.568292
0.0172635 -0.575294
0.0173256 -0.533507
0.016857 -0.541911
0.00226293 -0.558
-0.00627816 -0.561445
0.0072211 -0.564961
-0.00128897 -0.561633
-0.0177714 -0.543239
-0.0175372 -0.534277
-0.0266211 -0.576012
-0.0307742 -0.592868
0.0219736 -0.526517
0.00871252 -0.528198
-0.00409669 -0.530521
-0.0195142 -0.530429
-0.0396213 -0.603887
-0.0349122 -0.606896
0.0294111 -0.599533
0.0277265 -0.589862
0.0344753 -0.58669
0.0336088 -0.581312
-0.0269425 -0.526203
-0.0271942 -0.537713
0.025825 -0.537111
0.0380622 -0.521172
-0.0179642 -0.593458
0.00317676 -0.571786
0.0226825 -0.547213
-0.00247763 -0.570698
0.0264409 -0.60222
0.00922872 -0.532469
0.00586824 -0.531739
0.000488856 -0.532079
0.00279296 -0.531816
-0.00166234 -0.532744
-0.00433756 -0.533037
-0.00274185 -0.533037
-0.0075903 -0.533314
-0.0121574 -0.563551
-0.0215353 -0.568159
0.027588 -0.572957
0.0151988 -0.567677
0.0102234 -0.533182
0.0120953 -0.53393
0.0154665 -0.536292
0.0145948 -0.5396
0.00843067 -0.547782
0.00203806 -0.554432
-0.00258366 -0.555949
-0.00891659 -0.549325
-0.0152675 -0.540938
-0.0155276 -0.537616
-0.0112735 -0.534681
-0.0089488 -0.533913
-0.0299591 -0.573146
-0.0467056 -0.598651
0.0321068 -0.514923
-0.00225211 -0.527635
-0.0177878 -0.525315
-0.0559419 -0.625471
0.047903 -0.621738
0.0434431 -0.595544
0.0357115 -0.57535
-0.0423279 -0.519306
0.0503757 -0.511397
-0.0293647 -0.611533
0.0306105 -0.539384
-0.0554413 -0.504817
-0.0241149 -0.546669
0.00816265 -0.584801
0.00660816 -0.533156
0.00471678 -0.532624
0.0017334 -0.532832
-0.00075614 -0.533324
-0.00264329 -0.533613
-0.0048047 -0.534074
-0.015234 -0.561116
0.0170435 -0.562824
0.00857821 -0.534787
0.00907333 -0.539471
0.0011058 -0.549952
-0.00159409 -0.551191
-0.00874601 -0.540706
-0.00728182 -0.535666
-0.0290092 -0.559977
-0.0352397 -0.567529
-0.0401818 -0.576196
-0.0544878 -0.589001
-0.0858316 -0.630697
-0.0807543 -0.643408
0.0575373 -0.460335
0.0113928 -0.517036
-0.0468286 -0.487054
-0.0734053 -0.651315
0.0697944 -0.650113
0.0693106 -0.632619
0.0648221 -0.613119
0.0561702 -0.595731
0.0420202 -0.57409
0.0395757 -0.564258
-0.0579904 -0.488151
0.066044 -0.475943
-0.0620122 -0.651582
-0.014707 -0.603773
0.0613632 -0.494876
0.0411843 -0.636554
0.0688752 -0.666056
-0.04097 -0.527288
0.0100067 -0.59039
0.00464436 -0.533985
0.00544648 -0.53464
0.00376638 -0.53331
0.00451732 -0.533463
0.00211545 -0.533312
0.0030421 -0.533229
0.000135282 -0.533642
0.00102784 -0.533498
-0.00116412 -0.534006
-0.000455485 -0.533872
-0.00274307 -0.534304
-0.0020038 -0.534077
-0.0038718 -0.53544
-0.00311545 -0.534766
-0.00519415 -0.551612
-0.0112441 -0.555181
-0.0208338 -0.558623
0.0269961 -0.557802
0.0205579 -0.558518
0.00845985 -0.55487
0.00355598 -0.552686
0.00663935 -0.535951
0.00650869 -0.537828
0.00451993 -0.542091
0.00185296 -0.545243
-0.00301045 -0.546485
-0.00455351 -0.543328
-0.00587762 -0.538885
-0.00520809 -0.536804
-0.0293262 -0.548663
-0.0396673 -0.561524
-0.0619253 -0.578462
-0.0879258 -0.611706
-0.105677 -0.655202
0.0362299 -0.299073
0.0304183 -0.489984
0.00195565 -0.517893
-0.0223716 -0.504964
-0.0423903 -0.322814
-0.0934496 -0.683818
0.0960601 -0.687003
0.0891677 -0.630309
0.0544635 -0.581467
0.0370744 -0.553978
0.00442463 -0.1316
-0.0543691 -0.374549
-0.00755942 -0.125824
0.0471499 -0.354048
-0.0536551 -0.671137
0.0474896 -0.516639
0.0820654 -0.447131
0.0686535 -0.687284
-0.0793078 -0.460877
-0.0230938 -0.548614
0.00302904 -0.534583
0.00262615 -0.533877
0.00188548 -0.533753
0.000787458 -0.533923
-0.000290922 -0.53418
-0.00114978 -0.534562
-0.00165092 -0.535374
-0.0102201 -0.549196
-0.0208081 -0.548503
0.0178986 -0.549854
0.00640692 -0.549122
0.00293021 -0.536985
-0.000655734 -0.542628
-0.00437672 -0.543106
0.00372771 -0.545169
-0.00031199 -0.54382
-0.00188867 -0.537747
-0.0188304 -0.542717
0.0189172 -0.54539
-0.031302 -0.541347
-0.0354586 -0.546581
-0.0436417 -0.549163
-0.0496343 -0.557563
-0.0631335 -0.562411
-0.0752982 -0.57528
-0.08997 -0.58757
-0.10678 -0.607815
-0.123256 -0.628513
0.0265683 -0.317381
0.00981352 -0.476142
-0.00923918 -0.487468
-0.0252864 -0.341622
-0.128386 -0.681587
-0.123007 -0.701771
-0.114544 -0.71805
-0.10645 -0.734632
-0.0830002 -0.724973
0.0880995 -0.729594
0.1071 -0.733788
0.116848 -0.72003
0.123822 -0.70056
0.128522 -0.675559
0.119188 -0.645257
0.107723 -0.615901
0.0954652 -0.590724
0.0746869 -0.577013
0.0638123 -0.558191
0.0521183 -0.552763
0.0438091 -0.550137
0.0311256 -0.544479
0.0365617 -0.13077
-0.00255194 -0.237681
-0.0437084 -0.350425
-0.0370508 -0.128076
0.036352 -0.329307
0.00115649 -0.230746
-0.0563521 -0.7123
-0.0239213 -0.700558
0.0471762 -0.534016
0.0648397 -0.717186
-0.0176592 -0.577907
0.0364967 -0.694051
0.00127327 -0.535429
0.00107041 -0.536051
0.00161748 -0.534809
0.00185957 -0.534318
0.00177117 -0.534536
0.00191157 -0.534057
0.00173732 -0.533948
0.00184208 -0.533993
0.00144232 -0.533942
0.00105496 -0.533996
0.0012566 -0.533968
0.00063111 -0.534095
0.000201364 -0.534216
0.000415326 -0.534155
-0.000168315 -0.53437
-0.000491878 -0.534588
-0.000340907 -0.534474
-0.000668966 -0.534885
-0.000703117 -0.535348
-0.000710126 -0.535101
-0.000453503 -0.535993
4.44161e-05 -0.536996
-0.000247551 -0.536452
-0.0218992 -0.539782
-0.0257226 -0.54026
0.0255948 -0.543344
0.0217985 -0.54282
-0.0146211 -0.547136
-0.00861311 -0.540794
0.0123935 -0.547018
0.00883148 -0.546539
0.00957429 -0.542654
3.35662e-05 -0.538353
-0.000785332 -0.539769
0.00143001 -0.541496
0.000434466 -0.539535
-0.0156001 -0.538991
0.0162376 -0.540124
-0.0112234 -0.538813
-0.0130225 -0.538843
0.0136859 -0.539974
0.0119094 -0.539941
-0.00715027 -0.537989
-0.00341064 -0.538223
-0.00535479 -0.53808
0.00801075 -0.540114
0.00625933 -0.540133
0.00447784 -0.540178
0.00595124 -0.542443
-0.00467719 -0.539809
0.0133591 -0.54276
-0.012582 -0.541796
-0.00191864 -0.540683
0.00214754 -0.539631
0.011718 -0.550777
-0.0168363 -0.552342
0.0245881 -0.548235
-0.0251784 -0.543698
-0.00180079 -0.536208
-0.00143237 -0.534889
-0.000753779 -0.534347
0.000231562 -0.534053
0.00136194 -0.533818
0.00232765 -0.533761
0.00277736 -0.534172
0.00341994 -0.535441
0.0426507 -0.659103
-0.0175321 -0.629865
-0.00244479 -0.216689
-0.00262913 -0.22931
0.050003 -0.5601
0.077169 -0.601192
0.0993939 -0.662913
0.0925049 -0.706472
-0.0811504 -0.691847
-0.101077 -0.67168
-0.0463866 -0.441315
0.0494344 -0.412887
-0.106866 -0.63588
-0.0725018 -0.592467
-0.0459435 -0.569484
-0.0335887 -0.553669
0.00172087 -0.547394
-0.00413132 -0.546134
-0.0701397 -0.457358
0.0730258 -0.44185
0.00732254 -0.515433
-0.0092117 -0.537306
-0.00734989 -0.545294
0.00702954 -0.543952
0.0101465 -0.536199
0.0055864 -0.558019
0.0298836 -0.566855
-0.0250079 -0.565034
-0.00633526 -0.556894
-0.00556987 -0.534709
-0.00391962 -0.533678
-0.00149961 -0.533584
0.000201393 -0.533054
0.0033925 -0.532616
0.00590137 -0.532761
0.00712395 -0.533879
-0.0143613 -0.558359
0.0385224 -0.621637
-0.00834098 -0.588443
-0.0453796 -0.623729
0.0517914 -0.498328
-0.0351248 -0.514029
0.0417535 -0.584045
0.0471603 -0.609758
-0.0104362 -0.52986
0.0120171 -0.522918
-0.0628436 -0.619419
-0.0351674 -0.581407
-0.0309906 -0.537663
0.0296469 -0.537669
-0.0122517 -0.532832
-0.022331 -0.536254
-0.0103164 -0.552615
0.00973561 -0.55098
0.0211351 -0.535162
0.0132885 -0.532204
0.0257488 -0.578168
-0.0183867 -0.570597
-0.00425024 -0.532401
0.0011209 -0.530931
0.00954688 -0.582361
0.0121636 -0.559896
0.0139667 -0.581967
-0.0165427 -0.586374
0.00923914 -0.571622
-0.00634769 -0.565611
-0.00464301 -0.564684
0.000377595 -0.566365
-0.0222971 -0.58244
-0.0489005 -0.538606
0.00969011 -0.728582
-0.0255787 -0.633641
0.0059898 -0.664032
-0.00230011 -0.71901
0.0151252 -0.622246
-0.00942097 -0.728063
0.0704923 -0.509375
0.0357954 -0.596015
0.00270894 -0.718375
0.00508783 -0.649217
0.0173228 -0.580384
0.0179319 -0.278097
0.0414949 -0.323148
0.0234968 -0.266458
0.0663825 -0.38501
-0.0157568 -0.143612
0.00319554 -0.175887
0.00884551 -0.227879
-0.00222775 -0.226405
0.0139994 -0.271477
-0.0199454 -0.174792
-0.00919194 -0.185813
-0.0291786 -0.139282
0.0239234 -0.215224
0.0398961 -0.251319
-0.0419342 -0.111499
-0.0220677 -0.169254
-0.0222489 -0.292513
-0.0239166 -0.271378
-0.044924 -0.337365
-0.00917968 -0.23225
0.0160099 -0.144049
-0.0030689 -0.176457
-0.0715442 -0.402103
-0.0199438 -0.288185
-0.00106945 -0.23616
0.0190691 -0.179409
0.029221 -0.141177
0.00893355 -0.189487
0.041962 -0.112977
-0.0238432 -0.215976
-0.0397413 -0.252285
0.0196512 -0.176504
-0.0154216 -0.435565
0.0133902 -0.467773
0.0155497 -0.399878
0.00655527 -0.510462
0 0
0 0
-0.0132356 -0.205641
-0.0385375 -0.397691
-0.0285097 -0.465228
0.0167395 -0.418505
-0.0150789 -0.390025
-0.0148444 -0.460079
0.0142087 -0.186923
0 0
-0.0786907 -0.315499
-0.0082233 -0.507555
0.0317226 -0.445309
0.0398249 -0.369356
-0.0567684 -0.504222
-0.0580941 -0.506859
-0.020777 -0.555268
-0.08891 -0.462917
0.0122209 -0.599883
-0.0610598 -0.497003
-0.0731849 -0.467411
0.0745353 -0.478962
0.0478704 -0.520824
0.0790425 -0.48114
0.0141842 -0.566084
0.0900761 -0.452696
0.0777352 -0.448227
0.069971 -0.481336
0.0676309 -0.409658
0.0691626 -0.406903
0.0417139 -0.344609
0.022085 -0.28653
0.0634184 -0.401988
-0.0690863 -0.419914
-0.0493112 -0.364694
-0.0739449 -0.422051
-0.0296758 -0.305395
-0.0666839 -0.420997
-0.0210656 -0.232724
-0.040315 -0.319451
-0.0226096 -0.217164
-0.0507914 -0.385951
0.0073249 -0.0734878
0.00270696 -0.182883
-0.0249617 -0.274084
-0.00807855 -0.515202
-0.00643445 -0.512748
-0.0196348 -0.497417
-0.00057263 -0.517719
-0.0357017 -0.481211
-0.00848887 -0.515422
0.00460734 -0.516288
0.0144786 -0.508491
0.0234443 -0.483136
0.0086497 -0.506251
0.0416212 -0.459066
0.0202337 -0.507408
0.0148146 -0.21496
0.0189524 -0.19866
0.0372935 -0.294691
-0.00871518 -0.071219
0.0487766 -0.357234
0.0180843 -0.256299
-0.00690115 -0.173813
-0.0584346 -0.500865
-0.0416328 -0.52538
-0.018221 -0.554744
-0.0278355 -0.543427
0.0713541 -0.470061
0.04529 -0.518973
0.0168504 -0.556564
0.0185667 -0.553459
-0.0650058 -0.483541
-0.0498561 -0.514919
-0.0360254 -0.53341
-0.0439041 -0.522855
-0.0495026 -0.512992
-0.0513151 -0.505765
-0.0586739 -0.494648
-0.0403994 -0.515556
-0.0477379 -0.503354
-0.0653249 -0.472527
-0.0389087 -0.526701
0.0525017 -0.50381
0.0457141 -0.51095
0.0444822 -0.517013
0.0362329 -0.527541
0.0299436 -0.529014
0.0410459 -0.524734
-0.0316339 -0.520606
-0.0349128 -0.523474
-0.0325651 -0.529215
-0.0260912 -0.53028
-0.0264513 -0.520939
-0.0228872 -0.525601
-0.0184041 -0.52858
-0.0140748 -0.527903
0.0104598 -0.525838
0.00450144 -0.525793
0.00358672 -0.527981
-0.000254007 -0.52944
-0.00684473 -0.528835
0.00447421 -0.529714
0.0301532 -0.524435
0.0364858 -0.517228
0.0273645 -0.521425
0.0424788 -0.508039
0.0220242 -0.519721
0.0180411 -0.524549
0.0231186 -0.529726
0.0153418 -0.527376
0.00926416 -0.529492
0.0114838 -0.531194
0.00521014 -0.530777
0.0150929 -0.529044
0.0180036 -0.529694
0.0249395 -0.0375201
0.0242445 -0.0965922
0.0190985 -0.0502898
0.0252348 -0.141798
0 0
0 0
0.0304607 -0.0302289
0.0511084 -0.0830257
0.0410108 -0.104241
0.0466099 -0.0605013
-0.0558628 -0.296043
-0.0671069 -0.322006
-0.046799 -0.0599335
-0.0417066 -0.102132
-0.0510953 -0.0820831
-0.027749 -0.135572
0.0561059 -0.294746
0.0671724 -0.320258
-0.0306432 -0.0300895
-0.0198128 -0.0494038
-0.025999 -0.0938472
-0.0251187 -0.0371447
-0.0609454 -0.438277
-0.0307228 -0.496569
-0.0336381 -0.504087
-0.0215976 -0.509742
-0.0352423 -0.495422
-0.0053378 -0.516521
-0.0483558 -0.466796
-0.0421776 -0.501901
-0.0279717 -0.512981
-0.0571047 -0.461959
-0.0626182 -0.462969
-0.0538468 -0.485033
-0.0667277 -0.441505
-0.0559062 -0.431088
-0.0467877 -0.34661
-0.0612054 -0.403426
-0.0554739 -0.384248
0.0509091 -0.35849
0.0567814 -0.381705
0.0398822 -0.324826
0.066937 -0.421619
0.0568963 -0.403131
0.063508 -0.46387
0.0673977 -0.444549
0.061995 -0.434879
0.0706421 -0.459324
0.054565 -0.437795
0.0562671 -0.480606
0.0600299 -0.487489
0.0350528 -0.507835
0.0242927 -0.511442
0.0227627 -0.515563
0.0220081 -0.509562
0.00963264 -0.515558
0.0120079 -0.519428
0.0454947 -0.497977
0.0455564 -0.473372
0.0348112 -0.495196
0.0483484 -0.48464
0.059392 -0.498006
0.0539171 -0.508257
0.0657283 -0.483374
0.0332134 -0.535669
0.0591663 -0.496002
0.0495987 -0.514492
0.0378501 -0.530125
-0.00600326 -0.524967
-0.0145722 -0.523499
-0.00979074 -0.526898
-0.0231736 -0.519056
0.00132448 -0.522938
-0.00377002 -0.517965
-0.0148115 -0.517674
0.000125918 -0.519951
0.00976489 -0.679472
-0.0102334 -0.677575
-0.00656795 -0.702227
-0.00828477 -0.63635
-0.0226427 -0.665316
-0.0172168 -0.71447
0.0153725 -0.706334
0.02922 -0.691328
0.0216642 -0.659292
0.0249076 -0.585291
0.00972211 -0.614872
0.0192692 -0.625437
-0.00154851 -0.607468
0.0389979 -0.637753
0.0399482 -0.563599
0.0311683 -0.559057
0.0830815 -0.418034
0.0787241 -0.351112
0.0695066 -0.373832
0.0490258 -0.356406
0.0593633 -0.340813
0.0887013 -0.394406
-0.0785554 -0.353129
-0.0866094 -0.429818
-0.0715506 -0.384654
-0.0613375 -0.35091
-0.0551035 -0.37545
-0.0872341 -0.39629
-0.0747541 -0.485663
-0.075887 -0.492379
-0.0545588 -0.51681
-0.0962218 -0.464656
-0.0724878 -0.509913
-0.0322858 -0.55979
-0.0377891 -0.539299
-0.0745121 -0.480344
-0.0835904 -0.461086
-0.0017582 -0.588044
0.0138951 -0.608891
-0.00313164 -0.579123
0.0296286 -0.642024
0.0284719 -0.629548
-0.00553256 -0.572616
-0.0222891 -0.550463
-0.0191624 -0.563117
-0.000105419 -0.601874
-0.0598502 -0.499334
-0.0678259 -0.483134
-0.0684124 -0.484804
-0.0683763 -0.47705
-0.0719343 -0.46129
-0.0759653 -0.46385
-0.0703367 -0.483506
-0.0399391 -0.526837
-0.0487422 -0.51545
0.0296933 -0.544942
0.0154459 -0.570913
0.0320643 -0.548857
-0.0028848 -0.598071
0.0477369 -0.525442
0.0479421 -0.51758
0.0312827 -0.539439
0.0766187 -0.490229
0.0903352 -0.472671
0.0874375 -0.467216
0.0866753 -0.491771
0.0979621 -0.458046
0.0857548 -0.449309
0.0848669 -0.462341
0.0651608 -0.503549
0.058317 -0.522647
0.0789915 -0.462719
0.0759614 -0.465459
0.0721055 -0.479856
0.0751788 -0.44436
0.0746116 -0.461101
0.0613669 -0.496973
0.061637 -0.497979
0.0813274 -0.463522
0.0797219 -0.447392
0.0803353 -0.429169
0.0821358 -0.425867
0.0680452 -0.400078
0.0518454 -0.367734
0.0781301 -0.429393
0.0755555 -0.428087
0.0746392 -0.430107
0.0719959 -0.427284
0.0562201 -0.380869
-0.07354 -0.416499
-0.0871114 -0.439423
-0.083148 -0.441406
-0.0798329 -0.443522
-0.0588721 -0.387494
-0.0760919 -0.439991
-0.0745836 -0.445278
-0.0610725 -0.396641
-0.0714845 -0.44007
-0.0333245 -0.535678
-0.020714 -0.551646
-0.0298858 -0.540494
-0.0307772 -0.539774
-0.0163904 -0.556767
-0.0415295 -0.526145
0.0157188 -0.559862
0.000690787 -0.579742
-0.00127352 -0.58629
0.00358019 -0.573507
-0.0113598 -0.59489
-0.0165192 -0.614475
0.0313782 -0.537498
0.0317145 -0.536713
0.0178865 -0.554491
0.0319076 -0.536343
0.00506245 -0.570679
0.0464768 -0.517438
0.0551325 -0.505443
0.0389603 -0.527879
0.0106131 -0.563208
0.026514 -0.543645
0.041162 -0.526248
0.0486351 -0.515475
-0.00219095 -0.579156
0.0184884 -0.553633
0.0223406 -0.549128
0.0082053 -0.565229
-0.0045665 -0.571448
0.00883398 -0.587204
-0.00475745 -0.570504
0.024721 -0.607293
0.0234138 -0.602948
-0.00367424 -0.570734
-0.00573419 -0.570716
0.012408 -0.639945
0.0222981 -0.680025
0.0273622 -0.659828
0.00820247 -0.700048
0.0249027 -0.710577
0.0407854 -0.67467
-0.00393541 -0.622999
-0.0203344 -0.675387
-0.00339303 -0.685637
-0.00854086 -0.649715
-0.0152032 -0.706749
-0.0191735 -0.60187
-0.0338446 -0.653979
-0.0287262 -0.692113
-0.056133 -0.570847
-0.0463166 -0.624899
-0.0351576 -0.589502
-0.0433049 -0.67315
-0.0596348 -0.649639
0.051577 -0.706387
0.0441095 -0.727078
0.058702 -0.734413
-0.0777817 -0.618127
-0.0905372 -0.567613
0.0734107 -0.741191
0.0549794 -0.690255
0.068725 -0.564569
0.0503052 -0.559036
0.0517579 -0.603984
0.043418 -0.672608
0.0596452 -0.649195
-0.0417596 -0.706147
-0.0539454 -0.732674
-0.0378126 -0.729913
-0.0693832 -0.739574
0.0763985 -0.618111
0.092396 -0.56839
-0.0391785 -0.676903
0.0850952 -0.583875
0.0946867 -0.578467
0.0842573 -0.571746
0.102078 -0.58447
0.0267211 -0.537968
0.0229255 -0.537511
0.0762096 -0.566588
0.075697 -0.589449
0.0860425 -0.596547
0.101585 -0.603454
0.11712 -0.607376
0.11138 -0.59442
0.124428 -0.618192
0.019187 -0.53718
0.0166093 -0.537015
0.0925266 -0.608834
0.123965 -0.660774
0.139986 -0.664709
0.136259 -0.649246
0.142503 -0.679414
0.0140516 -0.536914
0.0122926 -0.536882
0.129468 -0.633368
0.108499 -0.655127
0.114096 -0.670121
0.125884 -0.688457
0.138088 -0.705439
0.141388 -0.693158
0.134425 -0.715955
0.13087 -0.742209
0.137145 -0.735814
0.112467 -0.682561
0.111862 -0.726905
0.119351 -0.739375
0.124715 -0.73273
0.11261 -0.744026
0.142846 -0.728023
0.147911 -0.718748
0.130082 -0.725407
0.104826 -0.714322
0.100406 -0.721236
0.0977766 -0.73193
0.0952206 -0.745633
0.104423 -0.746057
0.0849271 -0.744444
0.152006 -0.707925
0.154892 -0.695476
0.0906084 -0.717628
-0.0951048 -0.730429
-0.103971 -0.746119