<?xml version="1.0"?>
<VTKFile type="UnstructuredGrid">
  <UnstructuredGrid>
  <Piece NumberOfPoints="3487"  NumberOfCells="1698">
    <Points>
      <DataArray type="Float64" NumberOfComponents="3" format="ascii">
39.974 48.9057 0
60.0261 48.9055 0
40.6343 49.0363 0
41.2963 49.158 0
41.9598 49.2708 0
42.6248 49.3746 0
43.291 49.4694 0
43.9585 49.5552 0
44.6271 49.6321 0
45.2966 49.6999 0
45.9669 49.7587 0
46.638 49.8085 0
47.3097 49.8492 0
47.9819 49.8809 0
48.6544 49.9036 0
49.3272 49.9171 0
50.0001 49.9217 0
50.673 49.9171 0
51.3458 49.9035 0
52.0183 49.8809 0
52.6905 49.8492 0
53.3622 49.8084 0
54.0333 49.7586 0
54.7036 49.6998 0
55.3731 49.632 0
56.0417 49.5551 0
56.7091 49.4693 0
57.3754 49.3744 0
58.0403 49.2706 0
58.7038 49.1578 0
59.3658 49.0361 0
39.9987 49.9213 0
39.9974 49.6673 0
39.9928 49.4134 0
39.985 49.1595 0
19.978 69.9005 0
39.9968 50.1829 0
39.9914 50.4445 0
39.9775 50.8229 0
39.9565 51.201 0
39.9134 51.7473 0
39.8554 52.2922 0
39.745 53.0775 0
39.6035 53.8578 0
39.3443 54.9756 0
39.0212 56.077 0
38.7484 56.8612 0
38.4432 57.6336 0
38.1062 58.3926 0
37.7379 59.137 0
37.1511 60.1856 0
36.5022 61.1972 0
35.7938 62.168 0
-0.0116627 49.8901 0
17.3676 69.7275 0
14.8022 69.2154 0
12.3255 68.373 0
9.97983 67.2146 0
7.80543 65.7601 0
11.5107 31.8291 0
0.189993 47.0707 0
0.787543 44.3081 0
1.76912 41.6575 0
0 0 0
0.133756 3.72427 0
0.548497 7.42946 0
1.24063 11.0938 0
2.20598 14.6957 0
3.10815 17.3498 0
49.9999 -0.0748001 0
5.1116 0 0
10.2232 0 0
15.3348 0 0
100 0 0
57.3927 -0.0724559 0
64.7855 -0.0638996 0
72.1765 -0.0460306 0
88.4894 31.8289 0
99.8663 3.72425 0
99.4515 7.42938 0
98.7594 11.0938 0
97.7941 14.6956 0
96.8919 17.3498 0
100.012 49.89 0
99.81 47.0707 0
99.2125 44.308 0
98.2309 41.6574 0
80.022 69.9004 0
99.8421 52.5005 0
99.333 55.0665 0
98.4932 57.544 0
97.3372 59.8908 0
95.8847 62.0665 0
60.0014 49.9211 0
77.5112 69.7442 0
75.0399 69.2743 0
72.647 68.4979 0
70.3704 67.4275 0
68.8844 66.5247 0
67.4822 65.4962 0
66.1747 64.3498 0
64.9716 63.0942 0
64.2062 62.1678 0
63.4978 61.197 0
62.849 60.1855 0
62.2621 59.1368 0
61.5569 57.6335 0
60.9788 56.0768 0
60.6558 54.9756 0
60.3965 53.8576 0
60.2551 53.0773 0
60.0027 49.6671 0
60.0073 49.4132 0
60.0151 49.1593 0
52.8209 30.1728 0
26.5208 36.9953 0
40.3266 24.2949 0
24.9258 22.5472 0
71.9448 22.5786 0
72.7069 44.0617 0
54.8063 24.1212 0
15.309 47.538 0
38.3618 49.5356 0
23.6201 65.3702 0
7.70283 7.75407 0
91.9389 7.73272 0
29.1744 57.0068 0
37.1874 52.009 0
28.0896 47.31 0
29.7291 48.271 0
71.5146 46.7941 0
30.988 49.1692 0
70.5131 48.2731 0
31.6349 45.7522 0
30.8874 47.2097 0
70.0639 46.7814 0
68.9848 45.1026 0
31.2931 50.265 0
30.9069 51.4896 0
28.1901 49.2692 0
45.3062 41.379 0
53.8454 41.0003 0
56.0303 40.5492 0
73.126 47.5515 0
70.1122 49.5147 0
68.3363 42.5287 0
32.3074 42.8586 0
26.1367 45.7919 0
27.6756 44.7937 0
30.3012 43.4184 0
70.4167 42.7289 0
72.6767 46.06 0
44.8472 43.1718 0
51.4311 42.0783 0
55.4117 42.6649 0
32.4514 49.2038 0
68.5531 49.7494 0
39.4731 42.1636 0
35.4359 43.4824 0
32.8938 46.6503 0
33.5776 48.3993 0
67.1033 48.3451 0
67.9832 46.5816 0
65.0768 43.1459 0
60.4231 41.8014 0
32.3704 51.5243 0
28.2198 51.1302 0
41.7731 37.384 0
46.8213 37.789 0
52.05 39.9626 0
58.6827 39.3322 0
26.61 52.0299 0
24.3041 50.4647 0
74.2238 50.0695 0
71.1622 50.7689 0
69.1385 52.3483 0
67.9134 52.4804 0
59.7687 36.451 0
66.5089 40.772 0
34.102 41.1482 0
36.0168 35.8813 0
23.1856 47.2915 0
21.6454 43.3894 0
28.3485 41.9006 0
74.3181 44.8192 0
76.6336 48.677 0
43.052 43.76 0
46.2672 43.0455 0
49.968 43.0936 0
48.4321 42.8763 0
51.7635 44.1313 0
54.0894 44.2471 0
52.9068 44.5427 0
56.2745 43.7959 0
33.8828 49.4953 0
33.7849 51.0101 0
66.5337 51.8268 0
66.594 49.8342 0
41.8295 43.9977 0
40.6999 43.7356 0
38.4569 43.3436 0
37.1388 43.9498 0
35.3442 45.6602 0
34.3252 46.9416 0
66.0242 46.6661 0
65.0207 45.3906 0
63.1934 43.6339 0
61.7079 43.1836 0
58.8813 43.5961 0
57.5413 43.9121 0
33.3987 52.2348 0
29.172 53.8524 0
40.827 31.1037 0
50.8858 36.1029 0
55.6717 34.3844 0
23.5671 53.5825 0
76.9125 52.0501 0
70.2332 53.4581 0
66.4033 53.0688 0
65.482 35.2654 0
30.9418 34.6814 0
19.45 47.4178 0
26.122 40.1356 0
72.0145 34.2006 0
72.0581 41.4883 0
77.484 45.4263 0
43.1655 45.2024 0
45.8083 44.8383 0
48.7643 44.9293 0
51.4436 45.558 0
53.7696 45.6738 0
56.2191 45.4944 0
34.9112 50.2057 0
65.0838 50.4225 0
40.8133 45.1779 0
38.3655 45.5218 0
36.0282 47.4093 0
64.1407 47.1544 0
61.6516 45.4287 0
58.826 45.2945 0
36.071 52.4798 0
34.9208 53.2449 0
33.5062 53.759 0
31.9077 55.5545 0
26.1035 59.0339 0
23.0062 57.4414 0
32.3862 22.7938 0
47.0346 26.7903 0
63.1471 23.1439 0
19.9979 55.1526 0
80.1805 54.4177 0
75.7929 55.9212 0
71.9307 56.2684 0
69.0849 55.5846 0
65.7699 54.0772 0
64.0943 53.919 0
68.1645 29.0995 0
26.7641 30.1854 0
17.2459 51.8842 0
14.6018 42.5717 0
22.391 34.1677 0
84.8904 46.9992 0
84.7127 52.1596 0
75.1773 38.0439 0
81.2122 44.0639 0
42.4554 46.5332 0
41.4147 46.3417 0
44.9646 46.3784 0
43.6781 46.2954 0
47.7357 46.3196 0
46.3848 46.2521 0
50.62 46.6329 0
49.2718 46.5368 0
53.051 47.0282 0
51.7633 47.0444 0
55.5139 46.6406 0
54.2338 46.7326 0
58.0625 46.5947 0
56.7808 46.7568 0
36.3736 48.7322 0
36.0276 49.7348 0
35.9297 51.2498 0
63.3827 52.1835 0
63.8271 51.1708 0
63.8874 49.1779 0
63.837 48.2745 0
40.285 46.0795 0
39.3693 46.2596 0
38.051 46.8656 0
37.3927 47.4507 0
62.8335 46.999 0
62.018 46.6736 0
60.5324 46.2234 0
59.4026 46.2787 0
38.0624 52.6784 0
36.1784 54.0042 0
34.0788 56.8696 0
29.6051 59.9463 0
22.8817 61.5036 0
21.733 15.4746 0
39.96 16.3185 0
48.9007 11.6073 0
56.9467 17.0522 0
76.6515 15.7172 0
15.643 57.2075 0
84.5155 57.6435 0
73.4046 59.6154 0
66.5162 55.7392 0
62.4535 53.6874 0
82.9389 7.86499 0
79.7507 22.6856 0
16.3098 7.94531 0
18.3408 22.3969 0
10.7242 46.9063 0
16.5728 36.11 0
15.5099 30.498 0
89.4007 49.7859 0
83.3225 31.3447 0
81.5795 39.4122 0
41.9272 47.4348 0
44.2546 47.7092 0
46.8922 47.8596 0
49.5914 48.0232 0
52.2274 48.1031 0
54.7953 47.995 0
57.3573 47.741 0
37.3922 49.7763 0
37.9212 51.4483 0
62.1863 50.9389 0
62.5802 49.0227 0
39.9706 47.4235 0
38.3966 48.1886 0
38.5121 48.9587 0
61.7648 48.6577 0
61.7142 47.7939 0
59.7689 47.5238 0
38.8907 51.2077 0
61.3464 51.1426 0
39.1998 52.9877 0
38.4661 53.5485 0
38.1749 54.658 0
37.0248 55.4229 0
36.5224 57.1971 0
34.8759 58.7219 0
33.3705 60.5813 0
30.7564 62.695 0
27.9986 64.85 0
27.1654 7.89375 0
38.6547 8.45174 0
59.878 8.67846 0
71.7704 7.97926 0
19.2456 64.8192 0
14.9483 63.0887 0
10.7478 60.3036 0
6.29938 57.2626 0
6.0054 51.3283 0
94.2276 52.4263 0
93.3099 57.4812 0
89.3243 60.8234 0
84.5711 63.3323 0
79.4633 64.9999 0
74.566 64.0279 0
70.2596 62.7416 0
66.8243 61.2838 0
65.2125 58.6094 0
62.7135 57.2798 0
62.0719 55.7498 0
61.7808 54.6403 0
61.0692 52.9046 0
93.4856 14.5735 0
89.7947 20.7683 0
86.1155 25.139 0
6.26088 14.5659 0
13.005 24.5993 0
9.79045 20.7562 0
5.76477 45.7585 0
5.65592 40.8133 0
12.2963 34.8432 0
94.2234 47.3054 0
88.1219 37.1992 0
93.3557 42.5729 0
41.0913 48.2007 0
40.4302 48.0745 0
42.1322 48.3921 0
43.4632 48.5907 0
42.7964 48.5004 0
44.7498 48.6737 0
46.0896 48.8003 0
45.4189 48.746 0
47.4406 48.8678 0
48.7852 48.9221 0
48.1125 48.904 0
50.1334 49.0182 0
51.479 49.0001 0
50.8063 49.0182 0
52.7668 48.9839 0
54.1094 48.8934 0
53.4387 48.9477 0
55.3896 48.8014 0
56.7254 48.6387 0
56.0586 48.7291 0
58.0073 48.4767 0
59.3325 48.2422 0
58.6715 48.3684 0
39.3763 51.6594 0
39.3258 52.2049 0
60.9433 52.1219 0
60.8927 51.5763 0
38.0157 50.5383 0
39.1357 49.7207 0
61.7907 50.1298 0
61.8152 49.5612 0
60.9753 49.7648 0
39.5144 48.2546 0
39.1705 48.3737 0
60.9492 48.3323 0
60.4624 48.1869 0
39.4709 50.7493 0
60.4972 50.7671 0
39.492 50.1094 0
39.4883 50.3711 0
60.4798 50.3889 0
60.4761 50.1273 0
39.6424 49.5325 0
39.63 49.0248 0
39.6394 49.2786 0
60.5005 49.5585 0
60.5035 49.3046 0
60.513 49.0508 0
60.9998 49.1961 0
39.2861 49.1438 0
60.9508 50.3335 0
38.9853 50.2976 0
60.8988 47.4684 0
39.0548 47.6035 0
62.6307 49.9262 0
37.0462 50.779 0
61.7419 51.9517 0
38.7961 52.1177 0
58.6391 47.579 0
56.0755 47.903 0
53.5152 48.0869 0
50.9396 48.1193 0
48.2432 47.9271 0
45.5412 47.7922 0
42.968 47.6262 0
40.8864 47.2434 0
89.1489 44.934 0
10.9265 41.0558 0
13.2817 16.2266 0
85.8814 16.4377 0
63.1651 55.423 0
68.9103 58.6003 0
78.9343 60.0103 0
89.2818 55.073 0
11.7784 53.0177 0
19.2439 59.839 0
66.7214 15.8565 0
30.7493 15.5702 0
26.3674 62.2728 0
32.1688 58.1133 0
35.0282 54.7692 0
37.3286 53.2392 0
62.5298 48.1193 0
37.7382 48.7737 0
75.9555 28.786 0
20.4974 28.691 0
47.9133 19.4088 0
60.1661 44.9784 0
63.1373 45.8788 0
37.0471 46.1278 0
39.6837 44.9156 0
65.1443 48.4298 0
65.0236 52.4153 0
34.8133 51.7206 0
35.009 48.6908 0
57.4859 45.6105 0
54.9522 45.3782 0
52.5868 45.9694 0
50.3003 45.1466 0
47.2284 44.7121 0
44.3881 44.9646 0
41.9429 45.4401 0
74.3483 42.8211 0
80.2599 49.0219 0
17.9973 43.4707 0
21.3173 50.9334 0
34.4308 29.8207 0
59.993 30.3758 0
67.783 53.7223 0
73.3952 53.1662 0
54.4642 38.8847 0
46.5057 33.039 0
26.2428 55.5379 0
31.9841 52.749 0
69.7682 40.1552 0
30.9737 40.5249 0
57.5966 42.2137 0
63.2497 41.389 0
66.9043 44.9026 0
33.6412 45.1927 0
37.2302 41.7718 0
41.716 42.5554 0
68.0439 51.2384 0
32.7565 50.2997 0
53.2267 43.116 0
49.6356 41.0406 0
74.288 46.8174 0
25.7228 43.2759 0
71.9639 48.2857 0
26.5507 48.3082 0
69.0623 48.2605 0
32.1462 48.1079 0
71.0654 45.3025 0
29.6285 46.3117 0
29.8296 50.2304 0
88.1643 34.5306 0
96.8848 39.1722 0
91.3055 35.9143 0
92.228 38.784 0
96.0832 38.0073 0
88.494 40.9459 0
3.1152 39.1723 0
11.8569 33.2957 0
9.99645 35.1855 0
3.91685 38.0074 0
8.31691 37.6993 0
11.6885 37.1943 0
11.3976 22.678 0
10.9782 26.5461 0
9.3709 24.6256 0
11.8509 29.0462 0
4.15836 19.9484 0
5.35331 22.4834 0
8.23926 22.8506 0
11.5358 18.491 0
13.1429 20.4132 0
8.02536 17.6617 0
6.97412 20.3525 0
5.20922 17.2567 0
6.68911 24.9464 0
7.78329 26.7455 0
4.23329 14.6309 0
9.77093 15.3967 0
87.9552 22.9538 0
90.4217 24.6314 0
88.582 26.8154 0
91.5534 22.8565 0
95.8417 19.9484 0
94.6467 22.4833 0
87.7321 29.3654 0
[...]
    <PointData>
      <DataArray type="Float64" NumberOfComponents="2" Name="Displacement" format="ascii">
-0.000203457 -0.0788444
0.000320187 -0.0790398
-3.23632e-05 -0.07873
8.89615e-05 -0.0786181
0.000153741 -0.0785412
0.000198732 -0.0784771
0.000225672 -0.0784296
0.000242405 -0.0783962
0.000247938 -0.0783681
0.000246547 -0.0783481
0.000238204 -0.0783356
0.000224966 -0.0783294
0.000206685 -0.0783243
0.000185076 -0.0783231
0.000160422 -0.0783258
0.000134016 -0.0783316
0.000106047 -0.0783371
7.77433e-05 -0.0783451
4.97435e-05 -0.0783558
2.29194e-05 -0.0783695
-1.76158e-06 -0.0783834
-2.37917e-05 -0.0784012
-4.20906e-05 -0.0784234
-5.595e-05 -0.078451
-6.32524e-05 -0.0784812
-6.43098e-05 -0.0785199
-5.66893e-05 -0.0785685
-3.97115e-05 -0.0786289
-2.05357e-06 -0.0786961
5.2196e-05 -0.078786
0.00015457 -0.07891
-0.00128381 -0.0787186
-0.00103217 -0.0787251
-0.000782256 -0.0787399
-0.000523652 -0.0787769
-0.0220487 -0.0994694
-0.00152907 -0.0787226
-0.00177534 -0.0787316
-0.00213508 -0.0787512
-0.00249881 -0.0787793
-0.00302794 -0.0788345
-0.00356479 -0.0789061
-0.00435399 -0.07904
-0.00515479 -0.079209
-0.00632735 -0.0795177
-0.00750971 -0.0799006
-0.00836342 -0.0802226
-0.00921374 -0.0805834
-0.010056 -0.0809851
-0.0108868 -0.0814232
-0.0120602 -0.0821202
-0.0131953 -0.0828873
-0.0142802 -0.083721
-0.0116627 -0.109872
-0.0218584 -0.101421
-0.0214482 -0.103156
-0.0208736 -0.104657
-0.0201694 -0.105927
-0.0193856 -0.106986
0.0143098 -0.0687791
-0.00976646 -0.109598
-0.00750638 -0.108885
-0.00485701 -0.107663
0 0
-0.00551346 -0.00500717
-0.0078037 -0.00832488
-0.00813973 -0.0110095
-0.00681572 -0.0142783
-0.00498142 -0.0174383
-6.79866e-05 -0.0748001
0 0
0 0
0 0
0 0
0.00432738 -0.0724559
0.00870472 -0.0638996
0.0113493 -0.0460306
-0.0141694 -0.0689457
0.00553446 -0.00499928
0.00783674 -0.00835332
0.00817801 -0.0110542
0.00685796 -0.0143372
0.00502352 -0.0174991
0.0116931 -0.109959
0.00979634 -0.109683
0.00754992 -0.108968
0.00489214 -0.107761
0.0220331 -0.0996073
0.0131936 -0.110008
0.0144858 -0.109852
0.0156354 -0.109581
0.0166648 -0.109163
0.0176283 -0.108639
0.00136229 -0.0789195
0.0219661 -0.0975519
0.0216084 -0.095358
0.0209264 -0.0930727
0.019907 -0.09076
0.0189961 -0.0891818
0.0179243 -0.087644
0.0166929 -0.0861752
0.0153195 -0.0847928
0.0142908 -0.0839031
0.0132092 -0.0830726
0.0120775 -0.0823079
0.0109075 -0.0816129
0.00924178 -0.0807793
0.00754402 -0.0800923
0.00636633 -0.0797138
0.00520138 -0.079409
0.00440416 -0.0792403
0.00111811 -0.0789286
0.000875241 -0.0789454
0.000619055 -0.0789824
-0.00150873 -0.0762971
0.0066012 -0.0759531
0.00521785 -0.0731905
0.00877036 -0.0592534
-0.0088737 -0.062782
-0.00138627 -0.0822949
-0.0027038 -0.0750678
-0.00628697 -0.0929867
-0.00101779 -0.0799591
-0.0181685 -0.0961172
-0.00584996 -0.0106528
0.00574747 -0.0108538
-0.00953157 -0.0890871
-0.00340645 -0.0812474
-0.0010264 -0.0843358
-0.00143162 -0.0842096
0.000559121 -0.0839576
-0.00190047 -0.0841011
0.00154415 -0.0845019
0.00087946 -0.0818316
-0.000335894 -0.0830099
0.000240217 -0.0833297
-0.00120079 -0.0818424
-0.00276916 -0.0845238
-0.00393977 -0.0853845
-0.00265986 -0.0856544
0.00133279 -0.0778251
-0.00104821 -0.0779063
-0.00175901 -0.0778934
0.00160279 -0.0852554
0.0024943 -0.0850636
-0.00298013 -0.080076
0.00284854 -0.0799499
-0.00026703 -0.0839948
0.000931335 -0.0825916
0.00236816 -0.080788
-0.00272524 -0.0806546
0.000233179 -0.0838938
0.00114818 -0.0780052
-0.000299715 -0.0779727
-0.0011912 -0.0781014
-0.00163543 -0.0833325
0.00234916 -0.0843393
0.00253521 -0.078255
0.00247148 -0.0794725
0.000406843 -0.0818185
-0.00079318 -0.0823493
0.00092654 -0.082851
-0.000268233 -0.0823333
-0.00260211 -0.0796565
-0.00256643 -0.0783641
-0.00366373 -0.0844732
-0.00428478 -0.0868356
0.00317399 -0.0771543
0.00126261 -0.0774119
-0.000600779 -0.0777816
-0.00283464 -0.0777632
-0.00555052 -0.0884073
-0.00491421 -0.0887746
0.00411554 -0.0877413
0.00384549 -0.0864121
0.00477942 -0.0860056
0.00464738 -0.0852489
-0.00388561 -0.0770875
-0.003927 -0.078792
0.00373251 -0.0787167
0.00545896 -0.0763064
-0.00253599 -0.0867642
0.000430066 -0.083537
0.00325871 -0.0801052
-0.00038578 -0.0835001
0.00372734 -0.0880576
0.00137404 -0.0781173
0.000868733 -0.0779902
6.95386e-05 -0.0780346
0.000411545 -0.0779956
-0.000253081 -0.0781388
-0.000655236 -0.0781896
-0.000416963 -0.0781863
-0.00113742 -0.0782387
-0.00161893 -0.0826709
-0.00293829 -0.0833527
0.0037892 -0.0840545
0.00204651 -0.0832684
0.00152412 -0.0782312
0.00179465 -0.0783422
0.00227623 -0.0786786
0.00215411 -0.0791623
0.00128306 -0.0803588
0.000380022 -0.0813269
-0.000458263 -0.0815414
-0.00135321 -0.0805772
-0.00225106 -0.0793517
-0.002287 -0.0788707
-0.0016778 -0.0784511
-0.00134049 -0.0783355
-0.00412637 -0.0840814
-0.00652387 -0.0877177
0.00461078 -0.0753199
-0.000327472 -0.0773042
-0.00256638 -0.0769303
-0.0078918 -0.0914801
0.00676063 -0.0909153
0.00605416 -0.0872786
0.00493205 -0.0844155
-0.00606349 -0.0760075
0.00717881 -0.074794
-0.00420756 -0.0892814
0.00435608 -0.078898
-0.00787277 -0.0737846
-0.00346031 -0.0800147
0.00115691 -0.0854738
0.00100189 -0.078228
0.000709023 -0.078131
0.000257587 -0.0781533
-0.000120184 -0.0782276
-0.000409207 -0.0782771
-0.000740491 -0.0783599
-0.00204654 -0.0823405
0.00229821 -0.0825939
0.00129868 -0.0784865
0.00137507 -0.0791785
0.000251657 -0.0807065
-0.000322198 -0.0808842
-0.00133042 -0.0793594
-0.00111444 -0.078616
-0.0039735 -0.0822177
-0.0048588 -0.0833016
-0.00556619 -0.0845395
-0.00759908 -0.0863831
-0.0120817 -0.0923386
-0.0113977 -0.0941004
0.00825823 -0.0670747
0.00163914 -0.0755635
-0.00674482 -0.0710381
-0.0104048 -0.0951509
0.00989539 -0.0949677
0.00976503 -0.0925558
0.00908953 -0.0898157
0.00784122 -0.0873445
0.00581643 -0.0842526
0.00545905 -0.0828538
-0.00827507 -0.0712759
0.00935517 -0.0694568
-0.00885301 -0.0950775
-0.00223879 -0.0879304
0.00863215 -0.0722577
0.00596563 -0.0927702
0.00985246 -0.097125
-0.00580322 -0.0770848
0.00147815 -0.0861596
0.000727034 -0.0783625
0.000851156 -0.0784713
0.000578276 -0.0782397
0.000697649 -0.0782721
0.000319601 -0.0782282
0.000462994 -0.0782203
1.46122e-05 -0.0782747
0.000152199 -0.0782534
-0.000188688 -0.0783332
-7.77445e-05 -0.0783102
-0.000436477 -0.0783901
-0.00031916 -0.0783486
-0.000623028 -0.0785845
-0.000501452 -0.0784697
-0.000633624 -0.0809672
-0.00148223 -0.081491
-0.00282681 -0.0820053
0.00368413 -0.0819115
0.00278459 -0.0819963
0.0010901 -0.0814444
0.000402218 -0.0811185
0.00102744 -0.0786727
0.00101161 -0.0789543
0.000731883 -0.0795803
0.000356441 -0.0800402
-0.000521413 -0.0802151
-0.000738276 -0.0797597
-0.000923627 -0.07911
-0.000824487 -0.0787993
-0.0040026 -0.0806155
-0.00547321 -0.0824594
-0.00863473 -0.0849017
-0.0123502 -0.0896593
-0.0149124 -0.0958333
0.00516774 -0.0434366
0.00443603 -0.0713913
0.000288874 -0.0755053
-0.00326451 -0.0736216
-0.00608226 -0.0468751
-0.013285 -0.099763
0.0136472 -0.100227
0.0125445 -0.0922993
0.0075795 -0.085323
0.00509408 -0.0813905
0.000705354 -0.0191517
-0.00767102 -0.0545174
-0.00116466 -0.0183297
0.00661186 -0.0515626
-0.00784037 -0.0976426
0.00660305 -0.0753388
0.0114054 -0.0651651
0.00993202 -0.10003
-0.0110422 -0.0671909
-0.00319854 -0.080048
0.000498784 -0.0784596
0.000415547 -0.0783278
0.000289333 -0.0782956
0.000115172 -0.078316
-5.48963e-05 -0.0783563
-0.000195413 -0.0784224
-0.000292437 -0.0785657
-0.00133514 -0.080642
-0.00280976 -0.0805731
0.00240255 -0.0807631
0.000801467 -0.080626
0.000502958 -0.0788479
1.06144e-06 -0.0796814
-0.000520703 -0.0797623
0.000428342 -0.0800579
-0.00013874 -0.079851
-0.000354566 -0.0789587
-0.00252558 -0.0797504
0.00253825 -0.080135
-0.00427143 -0.0795832
-0.00486241 -0.0803314
-0.00601937 -0.0807095
-0.00687455 -0.0819121
-0.00878994 -0.0826167
-0.0105258 -0.0844626
-0.012618 -0.0862263
-0.015019 -0.0891234
-0.0173694 -0.0920785
0.00394815 -0.0459849
0.00152107 -0.0693076
-0.00142899 -0.0709846
-0.00378246 -0.0495299
-0.0181333 -0.0995827
-0.0174105 -0.102386
-0.0162793 -0.104603
-0.0152209 -0.10684
-0.0120178 -0.105376
0.0127176 -0.106054
0.0153007 -0.106735
0.0165921 -0.104894
0.0175151 -0.102228
0.0181403 -0.0987447
0.0167986 -0.0944592
0.0151527 -0.0902822
0.0133953 -0.0866856
0.0104353 -0.0847156
0.00887764 -0.0820215
0.00721626 -0.0812379
0.00603919 -0.0808552
0.00424599 -0.0800337
0.00555046 -0.0193093
-5.30021e-05 -0.034899
-0.00602691 -0.0511882
-0.00562727 -0.0189212
0.00495264 -0.0481628
-0.000161733 -0.0339034
-0.00833697 -0.103457
-0.00380302 -0.101673
0.00648184 -0.0776369
0.00951176 -0.104192
-0.00227843 -0.0839791
0.00554374 -0.10078
0.000251896 -0.0786014
0.000234953 -0.0787137
0.000284201 -0.0784873
0.00030451 -0.0783979
0.000298233 -0.0784372
0.000302543 -0.0783492
0.000269171 -0.0783264
0.000288177 -0.078336
0.000219595 -0.0783212
0.000157301 -0.0783269
0.000189537 -0.0783236
8.99854e-05 -0.0783408
2.18748e-05 -0.0783596
5.58251e-05 -0.07835
-3.7517e-05 -0.0783849
-9.13071e-05 -0.0784217
-6.58349e-05 -0.0784023
-0.000124715 -0.0784725
-0.000140464 -0.0785516
-0.000135611 -0.0785091
-0.000119588 -0.0786651
-7.29828e-05 -0.0788479
-0.000100358 -0.0787463
-0.00294988 -0.0793448
-0.00348621 -0.07942
0.00346818 -0.0798628
0.00293636 -0.0797805
-0.00194577 -0.0803629
-0.00110662 -0.0794477
0.00163369 -0.080346
0.00113936 -0.0802675
0.00123972 -0.0797201
9.27066e-05 -0.0790692
-2.08389e-05 -0.0792756
0.000110113 -0.0795282
-2.72554e-05 -0.0792425
-0.00207028 -0.0792179
0.00215733 -0.0793869
-0.00146319 -0.0791789
-0.00171203 -0.0791892
0.00180293 -0.0793581
0.00155738 -0.0793474
-0.00090227 -0.0790483
-0.000392844 -0.079065
-0.000656734 -0.0790532
0.00102207 -0.0793565
0.000782728 -0.0793522
0.000540036 -0.0793514
0.000740335 -0.0796784
-0.000564596 -0.0792954
0.00176241 -0.0797474
-0.00165591 -0.0796024
-0.000363663 -0.0793948
0.000394715 -0.0792411
0.00154284 -0.0808761
-0.00226061 -0.0811058
0.00333385 -0.0805515
-0.00341436 -0.0799044
-0.000330787 -0.0787101
-0.000246745 -0.0784799
-0.000129267 -0.0783847
2.76288e-05 -0.0783355
0.00020562 -0.0783019
0.000362115 -0.0783023
0.000449851 -0.078384
0.000566551 -0.0786039
0.0062895 -0.0958677
-0.0027523 -0.0915472
-0.000551104 -0.0316791
-0.000196176 -0.0334923
0.00692431 -0.08228
0.0108111 -0.0881589
0.0140402 -0.0969026
0.0132366 -0.102883
-0.0116465 -0.100768
-0.0143021 -0.0981229
-0.00674858 -0.0641968
0.00717591 -0.0600139
-0.0150547 -0.0931108
-0.0101465 -0.0869068
-0.00636761 -0.0836006
-0.00460793 -0.0813334
0.000145247 -0.0803652
-0.000484737 -0.0801903
-0.00990702 -0.0666827
0.0102501 -0.0643877
0.00106108 -0.0752063
-0.00139327 -0.078858
-0.0011339 -0.0800223
0.00108691 -0.07983
0.00152435 -0.0786934
0.000689587 -0.0818753
0.00410148 -0.0832
-0.00341982 -0.0829229
-0.000796341 -0.081714
-0.00086097 -0.0784649
-0.000602548 -0.0782925
-0.000235323 -0.0782691
2.58831e-05 -0.0781859
0.000507671 -0.0781241
0.000890452 -0.0781595
0.00108529 -0.0783463
-0.00206282 -0.0816843
0.00549147 -0.0907772
-0.00126092 -0.0858415
-0.00643575 -0.0911429
0.00740455 -0.0728086
-0.00504617 -0.0751711
0.00579465 -0.0856584
0.00661096 -0.089272
-0.00151997 -0.0776736
0.00173002 -0.0765526
-0.00883292 -0.0906816
-0.0048711 -0.08526
-0.00444641 -0.0787242
0.00425831 -0.0787411
-0.00180628 -0.0781582
-0.00324664 -0.0786289
-0.00154556 -0.0810203
0.00146297 -0.0807924
0.00307543 -0.078478
0.00195595 -0.0780706
0.00354095 -0.0847794
-0.00250163 -0.0836827
-0.000635153 -0.0780869
0.000162289 -0.0778512
0.00131183 -0.0852155
0.00175051 -0.0819117
0.00191174 -0.0852259
-0.00229361 -0.0858296
0.00122179 -0.0837822
-0.000809824 -0.0829268
-0.000721786 -0.082703
0.000122306 -0.0829698
-0.00307409 -0.0853471
-0.00670984 -0.0782649
0.00182156 -0.105689
-0.00324446 -0.0919019
0.00123077 -0.0963681
0.000118112 -0.104302
0.0023871 -0.0904641
-0.0017871 -0.105612
0.00975435 -0.0740827
0.00473942 -0.0864445
-6.38048e-05 -0.104209
0.00034245 -0.0941999
0.00221804 -0.0843219
0.00227675 -0.0407694
0.00559746 -0.047416
0.00298295 -0.0391934
0.00916019 -0.0563596
-0.0027036 -0.0213169
-2.99013e-06 -0.0260469
0.000873253 -0.0335719
-0.000578311 -0.0331771
0.00177542 -0.0397062
-0.0031926 -0.0257474
-0.00171299 -0.0274258
-0.00456567 -0.0206218
0.00295384 -0.0318019
0.00522987 -0.0370806
-0.00636055 -0.0165394
-0.00342843 -0.0248627
-0.00291663 -0.0428424
-0.00305432 -0.0399004
-0.00610796 -0.0494583
-0.000930777 -0.0342017
0.00273671 -0.02138
1.79069e-05 -0.0261296
-0.00990669 -0.0587824
-0.00264961 -0.0421076
8.7919e-05 -0.0345778
0.00305672 -0.0264121
0.00456677 -0.0208953
0.00166786 -0.027956
0.00636025 -0.0167526
-0.0029457 -0.0319106
-0.00521093 -0.0372207
0.00306952 -0.0259068
-0.00236688 -0.0633096
0.0018302 -0.0680933
0.00206393 -0.0580635
0.000908884 -0.0744082
0 0
0 0
-0.00197824 -0.0297083
-0.00565956 -0.0577608
-0.00421125 -0.067696
0.00255967 -0.0607935
-0.00199366 -0.0566111
-0.0020392 -0.0669583
0.00209866 -0.0269894
0 0
-0.0112062 -0.045862
-0.00115095 -0.0739786
0.00467876 -0.0647523
0.00583088 -0.0536068
-0.0079319 -0.0735773
-0.00806391 -0.0738637
-0.00280863 -0.080874
-0.012298 -0.0674818
0.00187282 -0.0873816
-0.00859686 -0.0725725
-0.0102535 -0.0681668
0.0103648 -0.0698494
0.00661981 -0.0758504
0.0109585 -0.0701385
0.00185133 -0.0824021
0.0124568 -0.0659774
0.0108457 -0.0653263
0.00977534 -0.0702227
0.00943897 -0.0596942
0.00961019 -0.0593572
0.00578172 -0.0502695
0.0030005 -0.0417909
0.00890863 -0.058542
-0.00967699 -0.0611705
-0.00689001 -0.0531486
-0.010291 -0.0615187
-0.00411715 -0.0444959
-0.00941618 -0.0613099
-0.0029865 -0.033773
-0.00586753 -0.0463227
-0.00327509 -0.0314118
-0.00735615 -0.0560698
0.00108691 -0.010679
0.0005078 -0.026662
-0.00349318 -0.0398701
-0.00119003 -0.0751193
-0.000971509 -0.0747358
-0.00290019 -0.0724687
-8.16345e-05 -0.0754753
-0.00520471 -0.0700911
-0.00123842 -0.0751896
0.000672447 -0.0752909
0.00212751 -0.0741197
0.00346204 -0.0703495
0.00130243 -0.0737714
0.00606043 -0.0668113
0.00294344 -0.0739938
0.00206292 -0.0312195
0.00272276 -0.0287436
0.00540545 -0.042722
-0.00128872 -0.0103572
0.00704141 -0.0518735
0.00248107 -0.0373132
-0.00112435 -0.0253627
-0.00826386 -0.073171
-0.00585193 -0.0767315
-0.00256212 -0.0810509
-0.00395872 -0.0794748
0.0100184 -0.0685687
0.00633521 -0.075752
0.00228934 -0.0811524
0.00257619 -0.0807955
-0.00920066 -0.0705899
-0.00707027 -0.0752756
-0.005135 -0.078041
-0.00625789 -0.0764942
-0.00706238 -0.0750335
-0.00733011 -0.0739417
-0.00834935 -0.0722644
-0.005794 -0.0754303
-0.00683784 -0.0735595
-0.00927887 -0.0689434
-0.00557399 -0.077113
0.00749162 -0.0736498
0.00653981 -0.0747354
0.00635989 -0.0756589
0.00519696 -0.0772581
0.00431507 -0.0775194
0.00586422 -0.0768023
-0.00454829 -0.0762037
-0.00501813 -0.0766572
-0.00468791 -0.0775318
-0.00377319 -0.0777228
-0.0038065 -0.0762403
-0.00330163 -0.0769868
-0.00266617 -0.0774663
-0.00203775 -0.0773516
0.00150942 -0.0770267
0.000648434 -0.0770066
0.000518158 -0.0773678
-3.87865e-05 -0.0776053
-0.000994481 -0.0775023
0.000650685 -0.077656
0.0043397 -0.0768223
0.00523453 -0.0756965
0.00393536 -0.0763441
0.00608797 -0.0742749
0.00316733 -0.076057
0.0026009 -0.0768305
0.00334864 -0.0776571
0.00222053 -0.0772878
0.00134892 -0.0776271
0.0016876 -0.0779101
0.000763205 -0.0778317
0.00219364 -0.0775603
0.00261754 -0.0776646
0.00363613 -0.00552524
0.00358375 -0.0141452
0.00277939 -0.00736116
0.00380919 -0.0207934
0 0
0 0
0.00446271 -0.00447118
0.00760704 -0.0123229
0.00611069 -0.0153751
0.00686963 -0.00895857
-0.00751653 -0.0436184
-0.00911209 -0.0474044
-0.00690067 -0.0088776
-0.00621705 -0.015072
-0.00760867 -0.0121874
-0.00417992 -0.0198976
0.00754742 -0.0434303
0.00911526 -0.0471546
-0.00449145 -0.00445162
-0.00288461 -0.00723595
-0.00384285 -0.0137541
-0.00366383 -0.00547112
-0.00879599 -0.0638021
-0.00444446 -0.0723826
-0.00485408 -0.0735777
-0.00313263 -0.0743749
-0.00510651 -0.0722385
-0.000775759 -0.0754017
-0.00699354 -0.0679922
-0.00606112 -0.0733011
-0.00402806 -0.0749637
-0.0082003 -0.0673159
-0.00893811 -0.0674988
-0.00771785 -0.0707785
-0.00948002 -0.0643221
-0.00806142 -0.0627228
-0.00664907 -0.050399
-0.00870354 -0.0587062
-0.00795162 -0.0558618
0.00726203 -0.0521121
0.00803446 -0.0555442
0.00562991 -0.0472517
0.00945755 -0.0613977
0.00817658 -0.0586183
0.00905195 -0.067639
0.00956111 -0.0647775
0.00886601 -0.0633178
0.00996258 -0.0669795
0.00787007 -0.0637101
0.00805261 -0.0701235
0.00854771 -0.071185
0.0050367 -0.0742041
0.00349875 -0.0747066
0.0032732 -0.0753813
0.0031815 -0.0743668
0.00138973 -0.0752799
0.0017265 -0.075977
0.0065276 -0.072721
0.00658835 -0.0689628
0.00503789 -0.072209
0.00695397 -0.0706849
0.00841187 -0.0727579
0.00761591 -0.0742632
0.00927704 -0.0705637
0.00468213 -0.078272
0.00840436 -0.0724668
0.00705328 -0.0752405
0.00539933 -0.0775756
-0.00086723 -0.0768594
-0.0021011 -0.0766245
-0.00141578 -0.0771811
-0.00333614 -0.0759242
0.000188619 -0.0765309
-0.000546893 -0.0756781
-0.00213673 -0.0756641
1.50895e-05 -0.0760288
0.000960487 -0.0985687
-0.00185125 -0.09833
-0.00136574 -0.101882
-0.00149486 -0.0924053
-0.00356161 -0.0966115
-0.00287814 -0.103663
0.00173765 -0.102463
0.00371229 -0.100283
0.00265922 -0.0956282
0.00325307 -0.0849625
0.00106395 -0.0892512
0.00237101 -0.0907304
-0.000475866 -0.0882709
0.00512453 -0.0924827
0.00540142 -0.0818082
0.0041988 -0.0812354
0.0114812 -0.0610896
0.0107282 -0.0516426
0.00954495 -0.0548427
0.0067303 -0.0521505
0.00808721 -0.0500739
0.0120948 -0.0578861
-0.0107136 -0.0519263
-0.0119842 -0.0627384
-0.00984845 -0.0563845
-0.00838387 -0.0515228
-0.00761536 -0.0548687
-0.0119089 -0.0581574
-0.0103752 -0.0707956
-0.0105179 -0.0717152
-0.00754725 -0.075232
-0.0132753 -0.0677198
-0.0100186 -0.0741497
-0.00435294 -0.0813379
-0.00517894 -0.0784703
-0.0103608 -0.0700456
-0.0115997 -0.0672175
-6.35583e-05 -0.0855552
0.00215737 -0.0886091
-0.000304654 -0.0843475
0.00444707 -0.0933622
0.00423031 -0.0916265
-0.000682766 -0.0834786
-0.00305587 -0.080253
-0.00254298 -0.081932
0.000222393 -0.0874798
-0.00839578 -0.0728923
-0.00952504 -0.0705048
-0.00956997 -0.0707347
-0.00963727 -0.0696121
-0.0101186 -0.0672653
-0.0106095 -0.067635
-0.00981074 -0.0705287
-0.00557338 -0.0768741
-0.00682943 -0.0752468
0.00405162 -0.0793327
0.00199634 -0.0830312
0.00435669 -0.0798244
-0.000621355 -0.0869774
0.00658477 -0.0764659
0.00664882 -0.0754332
0.00430077 -0.0785952
0.010617 -0.071412
0.0124928 -0.0688873
0.0121066 -0.0681095
0.0119835 -0.0715708
0.0135062 -0.0667534
0.0118891 -0.0654868
0.0117694 -0.0674009
0.00902723 -0.0733255
0.00804563 -0.0759907
0.0109976 -0.0674643
0.0106022 -0.067873
0.0100497 -0.0699924
0.0105203 -0.0647588
0.0104438 -0.067234
0.00856061 -0.072503
0.00857874 -0.0726245
0.0113005 -0.0675778
0.011101 -0.065205
0.0111508 -0.0625742
0.0113837 -0.0621426
0.00943155 -0.0584302
0.00716439 -0.0537188
0.0108617 -0.0625865
0.0105258 -0.0623827
0.0104166 -0.0626713
0.0100785 -0.062251
0.00786332 -0.0554906
-0.0102142 -0.0607573
-0.012068 -0.0640756
-0.0115427 -0.0643377
-0.0111098 -0.0646374
-0.00818108 -0.0565354
-0.0106238 -0.0641165
-0.010443 -0.0648944
-0.00858353 -0.0577594
-0.0100554 -0.0641238
-0.00466319 -0.0782041
-0.00288936 -0.0805461
-0.00420284 -0.0789547
-0.00435151 -0.0788935
-0.00232792 -0.0814
-0.00586067 -0.0768818
0.00210142 -0.0815706
-2.56175e-05 -0.0844769
-0.000339043 -0.0853609
0.000418615 -0.0836406
-0.00172385 -0.0867118
-0.00254824 -0.089399
0.00433925 -0.078372
0.00442894 -0.0783455
0.00245887 -0.0809009
0.00443601 -0.0782513
0.000652608 -0.0832793
0.00648145 -0.0754931
0.00773744 -0.0737977
0.00546892 -0.0770916
0.00146698 -0.0822509
0.00371891 -0.0794039
0.00582485 -0.0769266
0.00684875 -0.0753009
-0.00035762 -0.084553
0.00259957 -0.0808931
0.00316887 -0.0802872
0.00116808 -0.0826383
-0.000610315 -0.0834458
0.0012801 -0.0857625
-0.00066482 -0.0833685
0.00355086 -0.0886539
0.00333363 -0.0880867
-0.000536299 -0.0834591
-0.000746832 -0.0832774
0.00207143 -0.0929417
0.00353874 -0.0987191
0.00419604 -0.0958546
0.0015899 -0.101571
0.00394956 -0.103117
0.00609008 -0.098041
-0.000243617 -0.0904407
-0.00246101 -0.0979673
-5.95788e-05 -0.0994713
-0.000830943 -0.0942633