<?xml version="1.0"?>
<VTKFile type="UnstructuredGrid">
  <UnstructuredGrid>
  <Piece NumberOfPoints="3487"  NumberOfCells="1698">
    <Points>
      <DataArray type="Float64" NumberOfComponents="3" format="ascii">
39.9732 48.6657 0
60.0273 48.6649 0
40.6341 48.7966 0
41.2965 48.9186 0
41.9602 49.0315 0
42.6253 49.1355 0
43.2917 49.2305 0
43.9592 49.3164 0
44.6278 49.3933 0
45.2973 49.4612 0
45.9676 49.5201 0
46.6387 49.5698 0
47.3103 49.6106 0
47.9824 49.6423 0
48.6549 49.6649 0
49.3276 49.6785 0
50.0004 49.683 0
50.6733 49.6784 0
51.3459 49.6648 0
52.0184 49.6421 0
52.6905 49.6104 0
53.3621 49.5696 0
54.0332 49.5197 0
54.7035 49.4608 0
55.373 49.3929 0
56.0415 49.3159 0
56.709 49.2299 0
57.3753 49.1349 0
58.0404 49.0309 0
58.7041 48.9179 0
59.3664 48.7958 0
39.9944 49.6818 0
39.9939 49.4278 0
39.9901 49.1738 0
39.9831 48.9197 0
19.909 69.5967 0
39.9917 49.9434 0
39.9855 50.205 0
39.9706 50.5834 0
39.9484 50.9614 0
39.9036 51.5075 0
39.8439 52.0522 0
39.731 52.8371 0
39.5871 53.6169 0
39.3242 54.7338 0
38.9974 55.8339 0
38.722 56.6172 0
38.4141 57.3884 0
38.0745 58.1462 0
37.7036 58.8893 0
37.1131 59.9357 0
36.4608 60.9449 0
35.749 61.9131 0
-0.0473273 49.5528 0
17.2992 69.4175 0
14.7351 68.8999 0
12.2602 68.0527 0
9.91676 66.8903 0
7.74486 65.4324 0
11.5563 31.6185 0
0.160359 46.7343 0
0.765043 43.9738 0
1.75493 41.327 0
0 0 0
0.116992 3.70909 0
0.524842 7.40432 0
1.2161 11.0607 0
2.18568 14.6527 0
3.09362 17.2972 0
49.9997 -0.30364 0
5.1116 0 0
10.2232 0 0
15.3348 0 0
100 0 0
57.4061 -0.294177 0
64.8123 -0.259618 0
72.2118 -0.187137 0
88.4444 31.6178 0
99.8831 3.70909 0
99.4753 7.40414 0
98.7841 11.0605 0
97.8145 14.6524 0
96.9066 17.297 0
100.047 49.5525 0
99.8398 46.7339 0
99.2351 43.9735 0
98.2452 41.3266 0
80.091 69.5961 0
99.8827 52.1629 0
99.3777 54.7294 0
98.5417 57.2078 0
97.389 59.556 0
95.9397 61.7335 0
60.0059 49.681 0
77.58 69.4464 0
75.1075 68.9833 0
72.7125 68.2141 0
70.4327 67.1508 0
68.9438 66.2529 0
67.5383 65.2292 0
66.227 64.0874 0
65.0197 62.8361 0
64.2511 61.9124 0
63.5393 60.9442 0
62.887 59.935 0
62.2965 58.8885 0
61.586 57.3877 0
61.0027 55.8331 0
60.676 54.7331 0
60.4131 53.6161 0
60.2692 52.8363 0
60.0065 49.4269 0
60.0103 49.1729 0
60.0173 48.9189 0
52.8162 29.9399 0
26.5414 36.7634 0
40.3427 24.0711 0
24.9531 22.3656 0
71.9173 22.3863 0
72.7026 43.8106 0
54.798 23.8918 0
15.2897 47.2534 0
38.3584 49.2922 0
23.5632 65.0768 0
7.68505 7.72173 0
91.9564 7.69976 0
29.1445 56.7352 0
37.1765 51.7617 0
28.0863 47.0528 0
29.7244 48.0142 0
71.5165 46.538 0
30.9818 48.9128 0
70.5181 48.0154 0
31.6375 45.5028 0
30.8861 46.9567 0
70.0648 46.5273 0
68.9812 44.853 0
31.2842 50.0074 0
30.8944 51.2294 0
28.1817 49.008 0
45.3102 41.1419 0
53.8423 40.7629 0
56.0249 40.3118 0
73.1311 47.2914 0
70.1202 49.2554 0
68.3271 42.2845 0
32.3162 42.6149 0
26.1358 45.5356 0
27.6784 44.5417 0
30.3085 43.172 0
70.4083 42.4829 0
72.6775 45.8041 0
44.8507 42.9341 0
51.4302 41.8407 0
55.4081 42.4269 0
32.4461 48.9498 0
68.5606 49.4924 0
39.4809 41.9252 0
35.4435 43.2402 0
32.8949 46.401 0
33.575 48.1484 0
67.1064 48.0927 0
67.9825 46.3307 0
65.0688 42.9032 0
60.4153 41.5626 0
32.3587 51.2669 0
28.2063 50.8653 0
41.7829 37.1488 0
46.8252 37.553 0
52.0482 39.7255 0
58.674 39.0952 0
26.5926 51.7601 0
24.2887 50.1937 0
74.2367 49.8018 0
71.1744 50.5054 0
69.1537 52.0861 0
67.9281 52.2206 0
59.7568 36.2159 0
66.4968 40.5317 0
34.1135 40.9083 0
36.0337 35.6485 0
23.1777 47.0265 0
21.6468 43.1341 0
28.3586 41.6562 0
74.317 44.5643 0
76.6453 48.4082 0
43.0562 43.522 0
46.2699 42.8079 0
49.9682 42.8558 0
48.4333 42.6387 0
51.7628 43.8932 0
54.0875 44.0089 0
52.9055 44.3045 0
56.2711 43.5576 0
33.8775 49.2434 0
33.7755 50.7562 0
66.5458 51.5707 0
66.6006 49.5805 0
41.8341 43.7594 0
40.7053 43.4969 0
38.4639 43.1039 0
37.1453 43.7086 0
35.348 45.4153 0
34.3262 46.6939 0
66.023 46.4176 0
65.0167 45.1451 0
63.1866 43.3921 0
61.701 42.9433 0
58.8762 43.3571 0
57.5372 43.6734 0
33.3856 51.9787 0
29.1514 53.585 0
40.8412 30.8737 0
50.8848 35.8671 0
55.6638 34.1498 0
23.5424 53.3032 0
76.9337 51.7725 0
70.2523 53.192 0
66.4189 52.8117 0
65.4633 35.0334 0
30.9641 34.453 0
19.437 47.1449 0
26.1356 39.8948 0
71.99 33.9752 0
72.0473 41.2442 0
77.4876 45.1653 0
43.1685 44.9641 0
45.8104 44.6003 0
48.7651 44.6912 0
51.4432 45.3196 0
53.7684 45.4353 0
56.2169 45.2557 0
34.9046 49.9549 0
65.0913 50.1709 0
40.8172 44.9388 0
38.3696 45.2806 0
36.0287 47.1635 0
64.1399 46.908 0
61.6477 45.187 0
58.8227 45.0551 0
36.0583 52.2295 0
34.9054 52.9912 0
33.4886 53.5014 0
31.8838 55.2913 0
26.0656 58.7523 0
22.9705 57.1542 0
32.4118 22.5885 0
47.0396 26.5595 0
63.1263 22.9266 0
19.9655 54.8619 0
80.2114 54.1275 0
75.8235 55.6387 0
71.9593 55.9945 0
69.1096 55.3184 0
65.7883 53.8206 0
64.1116 53.6668 0
68.1388 28.8816 0
26.7933 29.9731 0
17.2185 51.5935 0
14.5952 42.3025 0
22.4181 33.9469 0
84.9087 46.7153 0
84.7432 51.8625 0
75.1592 37.8085 0
81.2167 43.8005 0
42.4575 46.2945 0
41.4172 46.1027 0
44.9663 46.14 0
43.6801 46.057 0
47.7367 46.0812 0
46.3862 46.0138 0
50.62 46.3944 0
49.2722 46.2984 0
53.0505 46.7895 0
51.7631 46.8058 0
55.5126 46.4018 0
54.2328 46.4939 0
58.0607 46.3554 0
56.7793 46.5177 0
36.3714 48.4856 0
36.0228 49.4866 0
35.9207 51.0001 0
63.3945 51.9341 0
63.8361 50.9211 0
63.8911 48.9299 0
63.8385 48.0275 0
40.288 45.8399 0
39.3723 46.0192 0
38.0531 46.6233 0
37.3936 47.207 0
62.8321 46.7548 0
62.0159 46.4307 0
60.5297 45.9825 0
59.4002 46.0387 0
38.0496 52.4331 0
36.161 53.7531 0
34.0516 56.611 0
29.5664 59.673 0
22.8351 61.2111 0
21.7491 15.3413 0
39.9736 16.1 0
48.9016 11.3762 0
56.9367 16.827 0
76.6327 15.5733 0
15.6016 56.9024 0
84.558 57.337 0
73.4439 59.3339 0
66.5401 55.4793 0
62.4697 53.4397 0
82.941 7.80632 0
79.7267 22.5186 0
16.3064 7.88919 0
18.3616 22.239 0
10.7003 46.6072 0
16.5937 35.8795 0
15.546 30.2986 0
89.4312 49.4795 0
83.2876 31.1392 0
81.5693 39.1674 0
41.9286 47.1959 0
44.2558 47.4706 0
46.893 47.6211 0
49.5918 47.7846 0
52.2273 47.8644 0
54.7948 47.7561 0
57.3565 47.5017 0
37.3878 49.5308 0
37.9121 51.203 0
62.194 50.6931 0
62.5829 48.7772 0
39.972 47.1834 0
38.3964 47.946 0
38.5103 48.7159 0
61.7663 48.4139 0
61.714 47.5508 0
59.768 47.2834 0
38.8825 50.965 0
61.3546 50.8988 0
39.1862 52.7456 0
38.4506 53.304 0
38.1558 54.4124 0
37.003 55.1736 0
36.4946 56.9456 0
34.8427 58.4648 0
33.3309 60.3187 0
30.7093 62.4234 0
27.9442 64.5692 0
27.1773 7.75244 0
38.6592 8.23945 0
59.8738 8.46109 0
71.759 7.82713 0
19.1889 64.515 0
14.894 62.7756 0
10.6971 59.9834 0
6.25219 56.9352 0
5.96847 51.0053 0
94.2667 52.1012 0
93.3573 57.1541 0
89.376 60.5023 0
84.6258 63.0197 0
79.5201 64.6983 0
74.6186 63.7397 0
70.3071 62.4664 0
66.8663 61.0197 0
65.2454 58.3515 0
62.7416 57.0302 0
62.0948 55.5027 0
61.8 54.3943 0
61.0828 52.6611 0
93.5022 14.5149 0
89.7938 20.662 0
86.0963 24.9826 0
6.24413 14.5086 0
13.0209 24.4523 0
9.79065 20.653 0
5.73952 45.4411 0
5.64495 40.5013 0
12.317 34.6053 0
94.2524 46.9859 0
88.1143 36.9417 0
93.3722 42.2637 0
41.0919 47.9613 0
40.4308 47.8349 0
42.133 48.1531 0
43.4641 48.3519 0
42.7972 48.2615 0
44.7507 48.435 0
46.0904 48.5617 0
45.4197 48.5074 0
47.4412 48.6292 0
48.7856 48.6835 0
48.1131 48.6654 0
50.1337 48.7795 0
51.4791 48.7614 0
50.8065 48.7795 0
52.7667 48.7451 0
54.1092 48.6544 0
53.4385 48.7088 0
55.3893 48.5624 0
56.7251 48.3994 0
56.0583 48.4899 0
58.007 48.2371 0
59.3325 48.0022 0
58.6713 48.1286 0
39.3668 51.418 0
39.3146 51.9633 0
60.9545 51.8789 0
60.9022 51.3335 0
38.0094 50.2937 0
39.132 49.4789 0
61.7961 49.8852 0
61.819 49.3168 0
60.9794 49.5222 0
39.5145 48.0139 0
39.1703 48.1323 0
60.9497 48.0902 0
60.4625 47.9457 0
39.4641 50.5083 0
60.5042 50.5256 0
39.4872 49.8685 0
39.4827 50.1301 0
60.4857 50.1474 0
60.4812 49.8858 0
39.6394 49.292 0
39.6286 48.7841 0
39.6372 49.038 0
60.504 49.317 0
60.5062 49.0631 0
60.5148 48.8093 0
61.0023 48.9536 0
39.2841 48.9025 0
60.9566 50.0908 0
38.9798 50.0554 0
60.8978 47.2267 0
39.0559 47.3623 0
62.6357 49.68 0
37.0388 50.532 0
61.7527 51.7066 0
38.7852 51.8746 0
58.6382 47.3393 0
56.0748 47.664 0
53.5148 47.8481 0
50.9397 47.8807 0
48.2438 47.6885 0
45.5422 47.5536 0
42.9693 47.3875 0
40.888 47.004 0
89.168 44.6402 0
10.9185 40.7751 0
13.2804 16.1299 0
85.8804 16.3353 0
63.187 55.1726 0
68.9443 58.3316 0
78.9782 59.7144 0
89.3229 54.758 0
11.7424 52.7092 0
19.1993 59.5393 0
66.7007 15.6598 0
30.7714 15.3862 0
26.3202 61.9888 0
32.1369 57.8485 0
35.0081 54.5146 0
37.3139 52.9916 0
62.5305 47.8746 0
37.7365 48.5295 0
75.9245 28.582 0
20.5296 28.4939 0
47.9166 19.1788 0
60.162 44.7382 0
63.1339 45.6351 0
37.0503 45.8846 0
39.6882 44.676 0
65.1466 48.1804 0
65.0367 52.1619 0
34.8024 51.4681 0
35.0063 48.4419 0
57.4834 45.3715 0
54.9505 45.1397 0
52.5862 45.7309 0
50.3004 44.9083 0
47.2299 44.4741 0
44.3908 44.7265 0
41.9462 45.2014 0
74.3419 42.5717 0
80.277 48.7445 0
17.9935 43.2082 0
21.2972 50.6549 0
34.4538 29.5982 0
59.9774 30.1462 0
67.8013 53.4613 0
73.416 52.8939 0
54.4595 38.6479 0
46.5111 32.8054 0
26.215 55.2613 0
31.9687 52.4892 0
69.7545 39.915 0
30.9868 40.2847 0
57.5911 41.9755 0
63.2398 41.1494 0
66.8996 44.6556 0
33.6456 44.9464 0
37.2397 41.5326 0
41.7219 42.3176 0
68.0551 50.9801 0
32.7485 50.0447 0
53.2247 42.8781 0
49.6361 40.8033 0
74.2922 46.5573 0
25.7282 43.0259 0
71.97 48.0257 0
26.5434 48.0464 0
69.0663 48.0051 0
32.1435 47.8551 0
71.0633 45.0503 0
29.6287 46.0587 0
29.8198 49.9702 0
88.1429 34.2906 0
96.8896 38.8477 0
91.2946 35.6321 0
92.231 38.4882 0
96.0827 37.6871 0
88.5009 40.6686 0
3.1106 38.848 0
11.8879 33.0686 0
10.012 34.9201 0
3.91761 37.6875 0
8.3188 37.4101 0
11.6959 36.9357 0
11.4053 22.5538 0
10.9963 26.4017 0
9.38096 24.5065 0
11.88 28.8742 0
4.15094 19.884 0
5.35428 22.4045 0
8.24281 22.7486 0
11.5346 18.3899 0
13.1489 20.292 0
8.01619 17.5835 0
6.96966 20.2693 0
5.1959 17.1943 0
6.69927 24.85 0
7.80052 26.633 0
4.21434 14.5809 0
9.76089 15.321 0
87.9456 22.8232 0
90.4114 24.5101 0
88.5624 26.6647 0
91.5496 22.7526 0
95.8492 19.8838 0
94.6458 22.4042 0
87.7007 29.1859 0
85.9902 20.6599 0
[...]
    <PointData>
      <DataArray type="Float64" NumberOfComponents="2" Name="Displacement" format="ascii">
-0.00100924 -0.318833
0.00149485 -0.319622
-0.000255122 -0.318453
0.000273483 -0.318043
0.000553475 -0.31776
0.000747815 -0.317522
0.000866536 -0.317346
0.000942218 -0.317224
0.000971367 -0.31712
0.000971557 -0.317047
0.000943141 -0.317003
0.000894394 -0.316983
0.000824896 -0.316966
0.00074161 -0.316964
0.000645829 -0.316977
0.000542843 -0.317002
0.000433454 -0.317024
0.000322723 -0.317056
0.000213287 -0.317098
0.000108771 -0.317151
1.31129e-05 -0.317204
-7.14679e-05 -0.317272
-0.000140658 -0.317357
-0.000191306 -0.317462
-0.000214794 -0.317575
-0.000212006 -0.317722
-0.000173625 -0.317906
-9.58989e-05 -0.318135
7.03944e-05 -0.318383
0.000308608 -0.318717
0.000756288 -0.319178
-0.00556097 -0.318216
-0.00450564 -0.318258
-0.00345671 -0.318337
-0.00236875 -0.318517
-0.0910294 -0.403301
-0.00658396 -0.318221
-0.00760971 -0.318247
-0.00910621 -0.318315
-0.0106172 -0.318419
-0.0128106 -0.318631
-0.0150327 -0.318914
-0.0182945 -0.319449
-0.0215995 -0.320131
-0.0264332 -0.321384
-0.0313011 -0.322945
-0.0348127 -0.32426
-0.0383084 -0.325735
-0.0417694 -0.327378
-0.0451813 -0.329171
-0.0499991 -0.332024
-0.0546577 -0.335165
-0.0591091 -0.33858
-0.0473273 -0.447168
-0.0902514 -0.411385
-0.0885594 -0.4186
-0.0861757 -0.424868
-0.0832408 -0.430203
-0.0799557 -0.434674
0.0598815 -0.279369
-0.0394006 -0.446073
-0.0300064 -0.44318
-0.0190429 -0.438196
0 0
-0.0222776 -0.0201894
-0.0314595 -0.0334685
-0.032668 -0.0441806
-0.0271081 -0.0573016
-0.0195105 -0.0700525
-0.000268628 -0.30364
0 0
0 0
0 0
0 0
0.0176558 -0.294177
0.0355456 -0.259618
0.0466555 -0.187137
-0.0592585 -0.280054
0.0223657 -0.0201592
0.0315974 -0.0335862
0.0328288 -0.044364
0.0272863 -0.0575425
0.0196889 -0.0703007
0.0474621 -0.447519
0.039534 -0.446416
0.030194 -0.443512
0.0191978 -0.438592
0.0909787 -0.403856
0.0537684 -0.447673
0.0592264 -0.446975
0.0640977 -0.445781
0.0684684 -0.443968
0.0725537 -0.441701
0.00588846 -0.319026
0.090694 -0.395367
0.0892134 -0.386326
0.0864035 -0.376927
0.0822115 -0.367428
0.0784706 -0.360952
0.0740711 -0.354645
0.0690185 -0.348624
0.0633838 -0.342959
0.0591637 -0.339314
0.0547253 -0.335912
0.0500803 -0.33278
0.0452764 -0.329935
0.0384331 -0.326525
0.0314508 -0.323718
0.0266019 -0.322175
0.0217997 -0.320938
0.0185084 -0.320257
0.00486459 -0.31908
0.00384512 -0.319169
0.00276524 -0.31935
-0.00615796 -0.309196
0.0271823 -0.307873
0.021316 -0.296942
0.0360565 -0.240778
-0.0363912 -0.255062
-0.00561451 -0.333389
-0.0110259 -0.304486
-0.0256209 -0.377523
-0.00442469 -0.323368
-0.0750128 -0.389473
-0.0236279 -0.0429875
0.0232208 -0.0438101
-0.0394821 -0.360691
-0.01433 -0.328577
-0.00435479 -0.341582
-0.00605799 -0.340977
0.00244 -0.340032
-0.00801476 -0.340467
0.0065254 -0.34217
0.00345995 -0.331288
-0.00155042 -0.336074
0.00114781 -0.337417
-0.00478809 -0.331367
-0.0116084 -0.342152
-0.0164378 -0.345646
-0.0111006 -0.346901
0.00539503 -0.314986
-0.00423731 -0.315325
-0.00712714 -0.315274
0.00671574 -0.345368
0.0104565 -0.344413
-0.0121288 -0.324239
0.0115854 -0.3237
-0.00117856 -0.340321
0.00373548 -0.334565
0.00962486 -0.32716
-0.0111033 -0.326661
0.0010717 -0.339842
0.00462257 -0.315678
-0.00120323 -0.315583
-0.0047934 -0.316071
-0.00694005 -0.337284
0.00988212 -0.3414
0.0102742 -0.31669
0.0100069 -0.321646
0.00149492 -0.331167
-0.00347068 -0.333262
0.00402086 -0.335321
-0.000925025 -0.333288
-0.0105427 -0.322414
-0.0104 -0.317139
-0.0153217 -0.341882
-0.01781 -0.351669
0.0129478 -0.312394
0.00514198 -0.313414
-0.00243177 -0.314849
-0.0115302 -0.314785
-0.0229982 -0.358121
-0.0203103 -0.359761
0.0170617 -0.355484
0.0160167 -0.34992
0.0199122 -0.348153
0.0193882 -0.345024
-0.0158635 -0.312167
-0.0160232 -0.319028
0.015223 -0.318696
0.0223511 -0.309095
-0.0104628 -0.351708
0.00182025 -0.33875
0.0133335 -0.324507
-0.00151941 -0.338347
0.0153921 -0.356925
0.00551969 -0.316102
0.00349987 -0.31563
0.000286013 -0.315822
0.00166196 -0.315664
-0.00100523 -0.316229
-0.00261292 -0.316418
-0.00165718 -0.316412
-0.00455411 -0.316599
-0.00688813 -0.334536
-0.0123436 -0.337283
0.0158638 -0.340126
0.00865714 -0.33697
0.00611861 -0.316544
0.00722198 -0.31699
0.00919806 -0.318372
0.00869232 -0.320332
0.0050993 -0.32518
0.00137341 -0.329112
-0.00169349 -0.329997
-0.00538529 -0.32608
-0.00908804 -0.321112
-0.00923771 -0.319153
-0.00674113 -0.317433
-0.00536824 -0.316972
-0.0172498 -0.340236
-0.0270735 -0.355168
0.0188651 -0.305251
-0.00133125 -0.313031
-0.0104752 -0.311588
-0.0325816 -0.370748
0.027905 -0.368499
0.0251549 -0.353357
0.0205895 -0.341566
-0.0248417 -0.307938
0.0294911 -0.303137
-0.0172284 -0.362172
0.0179107 -0.319744
-0.0324018 -0.299144
-0.0141669 -0.324163
0.00476059 -0.34653
0.00398838 -0.31653
0.00283467 -0.316177
0.00103587 -0.316284
-0.000467326 -0.31658
-0.00161213 -0.316766
-0.00292372 -0.317069
-0.00866767 -0.333144
0.00971494 -0.334163
0.00517369 -0.317535
0.00547564 -0.320324
0.000836371 -0.326526
-0.00112378 -0.327253
-0.00528773 -0.321057
-0.00441553 -0.318058
-0.0166594 -0.332555
-0.0203011 -0.33699
-0.0231999 -0.342068
-0.0315621 -0.349599
-0.0499396 -0.37403
-0.0470457 -0.381373
0.0337988 -0.272381
0.00669998 -0.306377
-0.0275542 -0.288329
-0.0428514 -0.385851
0.0407485 -0.385124
0.0403442 -0.375044
0.0376463 -0.363707
0.0325519 -0.353543
0.0242533 -0.340861
0.0228047 -0.335111
-0.0339701 -0.289128
0.0385521 -0.281823
-0.0363243 -0.385788
-0.0088853 -0.357145
0.0357027 -0.293105
0.0242926 -0.376666
0.0403841 -0.39423
-0.0239173 -0.312488
0.00595499 -0.349582
0.00284905 -0.317046
0.00333812 -0.31746
0.00228791 -0.3166
0.00275214 -0.31671
0.00127471 -0.316578
0.00183981 -0.316537
6.99623e-05 -0.31677
0.000613244 -0.316684
-0.000727002 -0.316996
-0.00029224 -0.31691
-0.00169674 -0.317198
-0.00124011 -0.317048
-0.0024087 -0.317927
-0.00193851 -0.317496
-0.00282643 -0.327544
-0.00634083 -0.329663
-0.0119104 -0.331724
0.0154766 -0.331289
0.0117436 -0.331674
0.00472064 -0.329477
0.00187193 -0.32817
0.00404899 -0.318256
0.00397827 -0.319382
0.00282189 -0.321913
0.00127017 -0.323779
-0.00194741 -0.324502
-0.00284443 -0.322644
-0.00361243 -0.320011
-0.00321289 -0.318765
-0.0168133 -0.325952
-0.0228601 -0.333501
-0.0358676 -0.343471
-0.0511063 -0.362968
-0.0615604 -0.388378
0.0212218 -0.176684
0.0180052 -0.289921
0.00116459 -0.306528
-0.013246 -0.298878
-0.0249001 -0.190692
-0.0546305 -0.404836
0.0561397 -0.406721
0.0518679 -0.373835
0.0315165 -0.345216
0.0213239 -0.329097
0.00273659 -0.0778204
-0.0316804 -0.221505
-0.00459672 -0.0744413
0.0273949 -0.209438
-0.0317845 -0.396797
0.0274806 -0.3058
0.0474718 -0.264587
0.0404736 -0.406418
-0.0459161 -0.272766
-0.0133416 -0.324818
0.00190764 -0.31742
0.00162033 -0.316945
0.00114533 -0.316844
0.00046701 -0.316937
-0.000197249 -0.317094
-0.000736417 -0.317341
-0.00108092 -0.31787
-0.00573923 -0.326168
-0.011869 -0.32582
0.0101811 -0.326607
0.00352687 -0.326114
0.00188628 -0.318915
-0.000194091 -0.322275
-0.00235518 -0.32258
0.0019759 -0.323791
-0.000371532 -0.322973
-0.00127636 -0.319366
-0.0107068 -0.322437
0.0107586 -0.324009
-0.0179447 -0.32169
-0.0203749 -0.324758
-0.0251465 -0.326289
-0.0286564 -0.331216
-0.0365413 -0.334081
-0.0436661 -0.341636
-0.0522563 -0.348854
-0.0621062 -0.360727
-0.0717547 -0.372852
0.0158725 -0.187288
0.00598328 -0.281601
-0.00562727 -0.288355
-0.0151548 -0.201658
-0.0748222 -0.4038
-0.0717604 -0.415469
-0.0669547 -0.424796
-0.0624044 -0.434254
-0.0489522 -0.428429
0.0518844 -0.431171
0.0627603 -0.433791
0.0682731 -0.425972
0.0722154 -0.41479
0.0748783 -0.400313
0.069392 -0.382642
0.0626575 -0.365473
0.0554619 -0.350719
0.043302 -0.342663
0.0369213 -0.331623
0.0300866 -0.328426
0.025237 -0.326873
0.0178412 -0.323531
0.0220712 -0.0778768
-0.000886102 -0.14116
-0.0251954 -0.207598
-0.0223716 -0.0762912
0.0208375 -0.195205
3.78157e-05 -0.137086
-0.0335847 -0.42079
-0.014775 -0.4137
0.027146 -0.315615
0.0384845 -0.423725
-0.00987216 -0.341481
0.0220347 -0.409958
0.000886882 -0.317956
0.000791859 -0.318367
0.00105508 -0.317543
0.00116842 -0.317218
0.00112933 -0.317361
0.00117998 -0.317042
0.00106076 -0.316965
0.00113031 -0.316997
0.000872832 -0.316952
0.000631731 -0.31698
0.000756851 -0.316965
0.000369621 -0.317038
0.00010415 -0.317111
0.000236401 -0.317074
-0.000125837 -0.317208
-0.000330763 -0.317347
-0.000234394 -0.317274
-0.00045091 -0.317537
-0.000492757 -0.317834
-0.000485121 -0.317675
-0.000376006 -0.318254
-0.000132885 -0.318919
-0.00027559 -0.318554
-0.0124774 -0.320744
-0.0146984 -0.321038
0.0146244 -0.32285
0.0124205 -0.322528
-0.00828262 -0.32499
-0.00479971 -0.321256
0.00698972 -0.324921
0.00493101 -0.324621
0.00535499 -0.322359
0.000196206 -0.319768
-0.000276794 -0.320605
0.000649325 -0.321629
7.56296e-05 -0.320469
-0.00882607 -0.320254
0.00919209 -0.320932
-0.00629712 -0.320123
-0.00733529 -0.320152
0.00771675 -0.32083
0.00669196 -0.320798
-0.00395163 -0.319615
-0.00180912 -0.319719
-0.00292111 -0.319652
0.00445004 -0.320869
0.00344513 -0.320867
0.00242445 -0.320879
0.00326776 -0.322213
-0.0025332 -0.320656
0.00753743 -0.322445
-0.00709055 -0.321866
-0.00130374 -0.321119
0.00143497 -0.320496
0.00660497 -0.32711
-0.00957748 -0.328039
0.0140532 -0.325696
-0.0143912 -0.323039
-0.00120245 -0.318408
-0.000923988 -0.317553
-0.000485116 -0.317201
0.000124842 -0.317014
0.000820562 -0.316877
0.00142378 -0.31686
0.00173433 -0.317146
0.00216044 -0.317965
0.0253778 -0.389636
-0.0107585 -0.372218
-0.00182761 -0.128422
-0.00119066 -0.135839
0.0288672 -0.332714
0.0447985 -0.35681
0.0579293 -0.392834
0.0542482 -0.417883
-0.047657 -0.409261
-0.0589572 -0.397907
-0.0274268 -0.260921
0.029198 -0.24402
-0.062203 -0.37713
-0.0420671 -0.351686
-0.0265336 -0.338173
-0.0193041 -0.328891
0.000806926 -0.325074
-0.00220954 -0.324346
-0.0408876 -0.270696
0.0424432 -0.261449
0.00432098 -0.305188
-0.00555296 -0.319034
-0.00447572 -0.32376
0.00428582 -0.322972
0.00609621 -0.318372
0.00305634 -0.331285
0.0171782 -0.336584
-0.0143499 -0.335484
-0.00349442 -0.330624
-0.00339444 -0.317469
-0.00238207 -0.316816
-0.000920913 -0.316741
0.000112383 -0.316416
0.00203428 -0.316161
0.00355326 -0.316275
0.0043101 -0.316982
-0.00844311 -0.331012
0.0225475 -0.368196
-0.00501939 -0.348362
-0.026496 -0.369554
0.0303663 -0.295248
-0.0206422 -0.304686
0.0241291 -0.346663
0.027384 -0.361613
-0.00617415 -0.314436
0.00706939 -0.310115
-0.0365377 -0.367332
-0.0203033 -0.345074
-0.0182035 -0.318879
0.0174236 -0.318914
-0.00729189 -0.316294
-0.0132008 -0.318263
-0.00619091 -0.327955
0.00585146 -0.327008
0.0124993 -0.317633
0.0079029 -0.31593
0.0148145 -0.343142
-0.0105243 -0.338675
-0.00254654 -0.316022
0.000661316 -0.315111
0.00548768 -0.345278
0.00715858 -0.331928
0.00801597 -0.345179
-0.0095525 -0.34771
0.005217 -0.339184
-0.00352452 -0.335668
-0.00284054 -0.334945
0.000360491 -0.335983
-0.012843 -0.345561
-0.0281196 -0.31825
0.00653681 -0.430148
-0.0141855 -0.374068
0.00424619 -0.392124
-0.000471334 -0.4245
0.00930585 -0.367764
-0.00638683 -0.429837
0.0406965 -0.301106
0.0202427 -0.351852
0.000702973 -0.424123
0.00222731 -0.383339
0.00965058 -0.34291
0.0099532 -0.165038
0.0236735 -0.191859
0.0130397 -0.158388
0.0382744 -0.228325
-0.0101221 -0.0857419
0.000972946 -0.104893
0.00441992 -0.135559
-0.00181446 -0.134333
0.00776703 -0.160927
-0.0123629 -0.103971
-0.00617091 -0.110635
-0.0178808 -0.0830545
0.013113 -0.128216
0.0224623 -0.149612
-0.0253038 -0.0665481
-0.0134749 -0.100542
-0.0125293 -0.173514
-0.0133084 -0.16128
-0.0257243 -0.200214
-0.00463519 -0.138131
0.0102643 -0.0859993
-0.000905122 -0.10523
-0.0413178 -0.238303
-0.0113005 -0.170748
-0.000156329 -0.140064
0.0118282 -0.106687
0.0178958 -0.0841707
0.00600318 -0.112799
0.0253116 -0.0674187
-0.0130727 -0.128659
-0.022378 -0.150183
0.0120315 -0.104807
-0.00935815 -0.257425
0.00768869 -0.276659
0.00880845 -0.23622
0.00378926 -0.302103
0 0
0 0
-0.00793017 -0.121179
-0.02289 -0.234954
-0.0169802 -0.275101
0.0101396 -0.247271
-0.00852655 -0.230357
-0.00854375 -0.272079
0.00846414 -0.110119
0 0
-0.04606 -0.186473
-0.00477468 -0.300371
0.0188802 -0.263234
0.0236205 -0.218137
-0.0329243 -0.29855
-0.0335894 -0.299915
-0.0118679 -0.32847
-0.0513119 -0.273959
0.00740718 -0.35488
-0.0355407 -0.294374
-0.0424979 -0.27668
0.0431285 -0.283511
0.0276301 -0.30808
0.0456713 -0.284743
0.00797342 -0.334774
0.0519798 -0.267881
0.0450507 -0.265239
0.0405769 -0.284971
0.0392036 -0.242396
0.0400083 -0.240894
0.024104 -0.204016
0.0126437 -0.169619
0.0368752 -0.237791
-0.0401153 -0.248429
-0.0286019 -0.215806
-0.0428052 -0.249765
-0.0171563 -0.180696
-0.038869 -0.249035
-0.0123043 -0.137434
-0.0238438 -0.188582
-0.0133429 -0.128043
-0.0299675 -0.228043
0.00437289 -0.0434252
0.00182306 -0.108239
-0.0144901 -0.162045
-0.00480503 -0.304947
-0.00387305 -0.303445
-0.0116938 -0.294308
-0.000335515 -0.306416
-0.0211293 -0.284687
-0.00502564 -0.305152
0.00272809 -0.305616
0.00860117 -0.300934
0.0139609 -0.285783
0.00519934 -0.299566
0.0246187 -0.271479
0.0119623 -0.300355
0.00858005 -0.126991
0.0111403 -0.117148
0.0220133 -0.173944
-0.00519415 -0.0421
0.0287343 -0.211026
0.0104007 -0.151589
-0.00431576 -0.102916
-0.0340845 -0.29673
-0.0242159 -0.311209
-0.010603 -0.328662
-0.0162826 -0.322111
0.0414769 -0.278279
0.0262823 -0.307327
0.00964877 -0.329414
0.0107365 -0.327766
-0.0379317 -0.286369
-0.0291199 -0.305157
-0.0210942 -0.316237
-0.0257059 -0.309976
-0.0289957 -0.304095
-0.0300748 -0.299744
-0.034325 -0.293053
-0.0237228 -0.30566
-0.0280148 -0.298259
-0.0381827 -0.279772
-0.0228363 -0.312367
0.0307546 -0.298573
0.0268114 -0.302887
0.0260821 -0.306552
0.0212783 -0.312909
0.0176246 -0.313872
0.0240594 -0.311155
-0.018598 -0.308722
-0.020523 -0.310488
-0.0191577 -0.313958
-0.0153831 -0.314659
-0.0155576 -0.308896
-0.0134774 -0.311786
-0.0108598 -0.313637
-0.00830265 -0.313206
0.00616043 -0.311937
0.00264891 -0.311884
0.00211362 -0.313261
-0.000153763 -0.314173
-0.00404458 -0.313786
0.00264518 -0.314356
0.0177364 -0.311106
0.0214283 -0.306694
0.0160899 -0.309248
0.0249352 -0.301095
0.0129497 -0.308165
0.0106205 -0.311158
0.0136412 -0.314361
0.00904892 -0.312919
0.00548023 -0.314231
0.00682412 -0.315307
0.00309121 -0.315026
0.00892032 -0.313963
0.0106424 -0.314366
0.0147619 -0.0223146
0.0144463 -0.0572921
0.0112945 -0.0298217
0.0151909 -0.0841609
0 0
0 0
0.0180721 -0.0180171
0.0305555 -0.0495683
0.0245316 -0.0620447
0.0277333 -0.0360792
-0.0318301 -0.17612
-0.0383977 -0.19149
-0.0278521 -0.0357468
-0.0249532 -0.0608051
-0.0305548 -0.0490142
-0.0166874 -0.0804994
0.0319649 -0.175354
0.0384237 -0.190466
-0.0181843 -0.0179361
-0.0117194 -0.0293051
-0.0154913 -0.0556852
-0.014871 -0.0220936
-0.0358995 -0.259218
-0.0181175 -0.293879
-0.0198105 -0.298521
-0.0127508 -0.301816
-0.0207963 -0.293245
-0.00315438 -0.305904
-0.0285094 -0.276159
-0.0247903 -0.297309
-0.0164571 -0.30396
-0.0335529 -0.273351
-0.0366866 -0.274017
-0.0316096 -0.2872
-0.0390071 -0.261218
-0.0329145 -0.254899
-0.0273569 -0.204882
-0.035796 -0.238555
-0.0325682 -0.227112
0.0298197 -0.211876
0.0331308 -0.225708
0.0232455 -0.192045
0.0390274 -0.249398
0.0334439 -0.238295
0.0371819 -0.274567
0.0393708 -0.263042
0.0363551 -0.257224
0.04115 -0.271879
0.0321286 -0.258887
0.0330066 -0.284561
0.0351287 -0.288746
0.0206015 -0.300895
0.0142934 -0.302985
0.0133831 -0.305568
0.0129722 -0.301744
0.0056723 -0.30537
0.00705955 -0.307919
0.02672 -0.29497
0.026858 -0.280074
0.0205297 -0.293118
0.0284292 -0.286898
0.0346676 -0.295046
0.0314322 -0.301133
0.0383024 -0.286266
0.0193465 -0.317378
0.0345836 -0.293863
0.0290076 -0.304958
0.0221706 -0.31432
-0.00353742 -0.311343
-0.00857879 -0.310433
-0.00577203 -0.312564
-0.0136323 -0.307701
0.000775118 -0.310079
-0.00222593 -0.306886
-0.00872178 -0.306769
6.8093e-05 -0.308181
0.00486977 -0.401162
-0.0067609 -0.400113
-0.00468781 -0.414621
-0.00546508 -0.375884
-0.01391 -0.392993
-0.0109108 -0.421857
0.00810933 -0.417016
0.0162176 -0.40815
0.0118407 -0.389222
0.0139991 -0.345666
0.00506057 -0.363127
0.010543 -0.36926
-0.00140515 -0.35894
0.0219772 -0.376464
0.0228134 -0.332843
0.0177709 -0.330332
0.0479313 -0.2477
0.0451162 -0.20871
0.0399822 -0.221935
0.0282006 -0.211317
0.0340207 -0.20248
0.0508394 -0.2342
-0.0450367 -0.209883
-0.0499968 -0.254534
-0.041203 -0.228269
-0.035207 -0.20841
-0.0317961 -0.222473
-0.0500275 -0.235308
-0.0432167 -0.287416
-0.0438438 -0.29127
-0.0314946 -0.305639
-0.0554625 -0.274956
-0.0418236 -0.301402
-0.0184148 -0.330758
-0.0217199 -0.318868
-0.0431138 -0.284319
-0.0483177 -0.272881
-0.000665562 -0.347675
0.00847808 -0.360042
-0.00155934 -0.342579
0.0177818 -0.379498
0.0170021 -0.372279
-0.00303577 -0.338886
-0.0128156 -0.325784
-0.0108522 -0.332944
0.0004019 -0.355679
-0.0347765 -0.295713
-0.0394303 -0.286076
-0.0396977 -0.287036
-0.0398189 -0.282465
-0.0418513 -0.27304
-0.044046 -0.274547
-0.0407583 -0.286235
-0.0231517 -0.311933
-0.0283074 -0.30526
0.0170329 -0.322287
0.00864297 -0.337483
0.0183557 -0.324446
-0.00209824 -0.35353
0.0275203 -0.310698
0.0277089 -0.306272
0.0180081 -0.319159
0.0442614 -0.290018
0.0521319 -0.279698
0.0504883 -0.276505
0.0500153 -0.290797
0.0564458 -0.271038
0.049547 -0.265883
0.0490411 -0.273624
0.0376399 -0.297844
0.0336207 -0.308908
0.0457319 -0.273865
0.0440304 -0.275505
0.0417675 -0.284066
0.0436313 -0.262944
0.0433073 -0.27292
0.0355637 -0.294225
0.035682 -0.29477
0.0470398 -0.274333
0.0461586 -0.264745
0.046445 -0.254012
0.0474524 -0.252157
0.0393163 -0.23699
0.0299151 -0.217856
0.0452038 -0.254104
0.0437579 -0.253305
0.0432634 -0.254489
0.0417922 -0.252802
0.0326238 -0.225346
-0.0425313 -0.246575
-0.0503142 -0.260093
-0.0480724 -0.261213
-0.0462101 -0.262448
-0.0340586 -0.229423
-0.0441136 -0.260347
-0.0432979 -0.263491
-0.0355203 -0.23462
-0.0415904 -0.260388
-0.0193434 -0.317246
-0.0120074 -0.326723
-0.0173887 -0.320192
-0.0179528 -0.319853
-0.00958374 -0.329966
-0.0242013 -0.311739
0.00893381 -0.331241
0.00016539 -0.343023
-0.00105067 -0.346758
0.00192081 -0.339477
-0.00685104 -0.35204
-0.0100474 -0.363298
0.0181129 -0.318129
0.0183917 -0.317839
0.0102983 -0.328288
0.0184646 -0.31754
0.00283328 -0.337904
0.0269323 -0.306349
0.0320425 -0.299357
0.0226474 -0.312679
0.00612836 -0.333603
0.0154084 -0.322036
0.0240186 -0.311859
0.0283124 -0.305375
-0.00136649 -0.342995
0.0107584 -0.328013
0.0130531 -0.325447
0.00480572 -0.334983
-0.0025986 -0.338467
0.00520765 -0.34783
-0.00276397 -0.338028
0.0145205 -0.359645
0.0136944 -0.357204
-0.00218061 -0.338277
-0.00322337 -0.337912
0.00785693 -0.378036
0.0137602 -0.401627
0.0165973 -0.389831
0.00562743 -0.413344
0.0153628 -0.419598
0.0244171 -0.398659
-0.00168182 -0.367947
-0.0110453 -0.398734
-0.00115401 -0.404819
-0.00424134 -0.383616
-0.00802003 -0.417262
-0.0106035 -0.355426
-0.0189568 -0.386067
-0.0159332 -0.408616
-0.0321235 -0.336968
-0.026274 -0.368862
-0.0199149 -0.348044
-0.0244717 -0.397409
-0.0340191 -0.383508
0.0307963 -0.417302
0.0265497 -0.429362
0.035011 -0.433726
-0.0446082 -0.36488
-0.0519323 -0.335074
0.0435106 -0.437763
0.0326708 -0.407924
0.0394084 -0.333205
0.0288147 -0.330084
0.0294686 -0.356491
0.0245244 -0.397089
0.0340233 -0.383246
-0.0251338 -0.417079
-0.0322659 -0.432678
-0.0229125 -0.430991
-0.0411962 -0.436788
0.0438024 -0.364883
0.0530447 -0.335507
-0.0235139 -0.399939
0.0493926 -0.346696
0.0549926 -0.343534
0.0488865 -0.339587
0.0593216 -0.347057
0.0152664 -0.319722
0.0130608 -0.319444
0.0441759 -0.336557
0.0439144 -0.349943
0.0499664 -0.354116
0.0590548 -0.358181
0.0681391 -0.360488
0.0647714 -0.352893
0.0724203 -0.366825
0.0108912 -0.319238
0.00939818 -0.319131
0.0537738 -0.361314
0.0722009 -0.391699
0.0815355 -0.394015
0.0793524 -0.38499
0.0830108 -0.40258
0.00791894 -0.31906
0.00690301 -0.319032
0.0753762 -0.375708
0.0631892 -0.388362
0.0664855 -0.397101
0.0733748 -0.407793
0.0804739 -0.417666
0.082373 -0.41056
0.0783732 -0.423726
0.0763576 -0.438745
0.0799492 -0.435118
0.0655842 -0.404306
0.0654478 -0.429882
0.0697777 -0.437091
0.0728279 -0.433321
0.0659451 -0.439705
0.0832258 -0.430672
0.0861507 -0.42535
0.0758901 -0.429147