<?xml version="1.0"?>
<VTKFile type="UnstructuredGrid">
  <UnstructuredGrid>
  <Piece NumberOfPoints="3487"  NumberOfCells="1698">
    <Points>
      <DataArray type="Float64" NumberOfComponents="3" format="ascii">
39.9731 48.6387 0
60.0274 48.6378 0
40.6341 48.7696 0
41.2965 48.8916 0
41.9603 49.0046 0
42.6254 49.1086 0
43.2917 49.2036 0
43.9593 49.2895 0
44.6279 49.3665 0
45.2974 49.4343 0
45.9677 49.4932 0
46.6388 49.543 0
47.3104 49.5837 0
47.9825 49.6154 0
48.655 49.638 0
49.3277 49.6516 0
50.0005 49.6561 0
50.6733 49.6515 0
51.346 49.6379 0
52.0184 49.6152 0
52.6905 49.5835 0
53.3621 49.5427 0
54.0332 49.4928 0
54.7035 49.4339 0
55.373 49.366 0
56.0415 49.289 0
56.709 49.203 0
57.3753 49.1079 0
58.0404 49.0039 0
58.7041 48.8909 0
59.3665 48.7688 0
39.9939 49.6549 0
39.9935 49.4008 0
39.9898 49.1468 0
39.9829 48.8928 0
19.901 69.5624 0
39.9911 49.9165 0
39.9848 50.1781 0
39.9697 50.5564 0
39.9474 50.9344 0
39.9025 51.4806 0
39.8426 52.0252 0
39.7294 52.8101 0
39.5851 53.5898 0
39.3218 54.7066 0
38.9947 55.8066 0
38.7189 56.5897 0
38.4107 57.3608 0
38.0708 58.1185 0
37.6997 58.8614 0
37.1087 59.9076 0
36.456 60.9165 0
35.7438 61.8844 0
-0.0513563 49.5146 0
17.2913 69.3825 0
14.7273 68.8643 0
12.2527 68.0166 0
9.9095 66.8536 0
7.73789 65.3954 0
11.5616 31.5947 0
0.157034 46.6961 0
0.762545 43.9359 0
1.7534 41.2895 0
0 0 0
0.115108 3.70739 0
0.52219 7.40151 0
1.21337 11.057 0
2.18345 14.6479 0
3.09205 17.2913 0
49.9997 -0.329493 0
5.1116 0 0
10.2232 0 0
15.3348 0 0
100 0 0
57.4076 -0.319231 0
64.8154 -0.281751 0
72.2159 -0.203105 0
88.4391 31.5939 0
99.885 3.70739 0
99.478 7.40132 0
98.7868 11.0567 0
97.8167 14.6476 0
96.9081 17.2911 0
100.052 49.5142 0
99.8431 46.6958 0
99.2377 43.9356 0
98.2468 41.2891 0
80.0989 69.5618 0
99.8873 52.1246 0
99.3828 54.6912 0
98.5472 57.1698 0
97.3949 59.5181 0
95.946 61.6958 0
60.0064 49.654 0
77.5879 69.4128 0
75.1152 68.9505 0
72.72 68.1821 0
70.4399 67.1196 0
68.9507 66.2223 0
67.5448 65.1991 0
66.233 64.0578 0
65.0252 62.807 0
64.2562 61.8836 0
63.5441 60.9157 0
62.8914 59.9068 0
62.3004 58.8606 0
61.5894 57.3601 0
61.0055 55.8058 0
60.6784 54.7058 0
60.4151 53.589 0
60.2708 52.8092 0
60.0069 49.3999 0
60.0107 49.1459 0
60.0175 48.8919 0
52.8157 29.9137 0
26.5438 36.7372 0
40.3446 24.0459 0
24.9562 22.3451 0
71.9141 22.3646 0
72.7022 43.7823 0
54.797 23.8659 0
15.2875 47.2213 0
38.358 49.2648 0
23.5567 65.0437 0
7.68306 7.71811 0
91.9584 7.69606 0
29.141 56.7046 0
37.1752 51.7339 0
28.0859 47.0238 0
29.7239 47.9853 0
71.5168 46.5092 0
30.9811 48.8839 0
70.5187 47.9864 0
31.6378 45.4747 0
30.886 46.9282 0
70.0649 46.4987 0
68.9808 44.8249 0
31.2832 49.9784 0
30.8929 51.2 0
28.1807 48.9786 0
45.3107 41.1152 0
53.8419 40.7362 0
56.0243 40.2851 0
73.1317 47.2621 0
70.1211 49.2262 0
68.3261 42.257 0
32.3172 42.5874 0
26.1357 45.5067 0
27.6787 44.5133 0
30.3093 43.1443 0
70.4074 42.4552 0
72.6776 45.7752 0
44.8511 42.9074 0
51.4301 41.8139 0
55.4077 42.4001 0
32.4455 48.9212 0
68.5615 49.4634 0
39.4818 41.8983 0
35.4443 43.2129 0
32.895 46.3729 0
33.5746 48.1201 0
67.1067 48.0642 0
67.9825 46.3024 0
65.0679 42.8759 0
60.4144 41.5357 0
32.3573 51.238 0
28.2047 50.8355 0
41.784 37.1223 0
46.8257 37.5264 0
52.048 39.6988 0
58.673 39.0685 0
26.5905 51.7297 0
24.287 50.1632 0
74.2382 49.7716 0
71.1758 50.4757 0
69.1554 52.0566 0
67.9299 52.1913 0
59.7554 36.1894 0
66.4954 40.5047 0
34.1148 40.8812 0
36.0356 35.6222 0
23.1768 46.9967 0
21.6469 43.1053 0
28.3597 41.6287 0
74.3169 44.5356 0
76.6466 48.3778 0
43.0566 43.4952 0
46.2701 42.7812 0
49.9682 42.829 0
48.4335 42.6119 0
51.7627 43.8664 0
54.0872 43.9821 0
52.9054 44.2777 0
56.2707 43.5307 0
33.8769 49.215 0
33.7744 50.7276 0
66.5472 51.5419 0
66.6014 49.5519 0
41.8346 43.7326 0
40.7059 43.4701 0
38.4646 43.0769 0
37.146 43.6814 0
35.3484 45.3878 0
34.3263 46.666 0
66.0229 46.3896 0
65.0163 45.1175 0
63.1858 43.3649 0
61.7002 42.9162 0
58.8757 43.3302 0
57.5368 43.6466 0
33.3841 51.9498 0
29.1491 53.5548 0
40.8429 30.8478 0
50.8847 35.8406 0
55.6629 34.1233 0
23.5396 53.2717 0
76.9361 51.7412 0
70.2546 53.162 0
66.4208 52.7827 0
65.4611 35.0073 0
30.9667 34.4273 0
19.4355 47.1141 0
26.1371 39.8676 0
71.9872 33.9498 0
72.0461 41.2166 0
77.488 45.1358 0
43.1689 44.9372 0
45.8106 44.5735 0
48.7652 44.6644 0
51.4432 45.2928 0
53.7682 45.4085 0
56.2167 45.2288 0
34.9038 49.9267 0
65.0921 50.1426 0
40.8176 44.9119 0
38.37 45.2535 0
36.0288 47.1359 0
64.1398 46.8803 0
61.6472 45.1598 0
58.8224 45.0281 0
36.0568 52.2013 0
34.9036 52.9626 0
33.4866 53.4725 0
31.881 55.2617 0
26.0612 58.7205 0
22.9664 57.1218 0
32.4147 22.5653 0
47.0402 26.5334 0
63.124 22.9021 0
19.9617 54.8291 0
80.2149 54.0948 0
75.827 55.6068 0
71.9626 55.9636 0
69.1125 55.2884 0
65.7905 53.7917 0
64.1137 53.6384 0
68.1359 28.857 0
26.7967 29.9491 0
17.2153 51.5606 0
14.5944 42.272 0
22.4212 33.922 0
84.9108 46.6832 0
84.7467 51.829 0
75.1571 37.782 0
81.2172 43.7707 0
42.4578 46.2676 0
41.4174 46.0758 0
44.9665 46.1132 0
43.6804 46.0301 0
47.7368 46.0544 0
46.3863 45.987 0
50.62 46.3676 0
49.2723 46.2716 0
53.0504 46.7626 0
51.763 46.7789 0
55.5125 46.3749 0
54.2327 46.467 0
58.0605 46.3284 0
56.7792 46.4908 0
36.3711 48.4579 0
36.0222 49.4587 0
35.9196 50.972 0
63.3959 51.906 0
63.8371 50.893 0
63.8915 48.902 0
63.8387 47.9997 0
40.2884 45.8129 0
39.3726 45.9921 0
38.0533 46.596 0
37.3937 47.1795 0
62.8319 46.7273 0
62.0157 46.4034 0
60.5294 45.9554 0
59.4 46.0117 0
38.0481 52.4055 0
36.159 53.7249 0
34.0484 56.5819 0
29.5619 59.6422 0
22.8297 61.1781 0
21.7509 15.3263 0
39.9751 16.0753 0
48.9017 11.3501 0
56.9356 16.8015 0
76.6306 15.557 0
15.5969 56.868 0
84.5629 57.3023 0
73.4485 59.3022 0
66.5429 55.45 0
62.4716 53.4118 0
82.9412 7.79969 0
79.7239 22.4998 0
16.306 7.88285 0
18.364 22.2212 0
10.6976 46.5733 0
16.5961 35.8535 0
15.5502 30.276 0
89.4347 49.4449 0
83.2835 31.1159 0
81.5681 39.1398 0
41.9287 47.169 0
44.2559 47.4437 0
46.8931 47.5942 0
49.5918 47.7577 0
52.2273 47.8375 0
54.7947 47.7292 0
57.3564 47.4748 0
37.3873 49.5032 0
37.9111 51.1754 0
62.195 50.6654 0
62.5832 48.7496 0
39.9722 47.1564 0
38.3963 47.9188 0
38.5101 48.6886 0
61.7665 48.3865 0
61.714 47.5234 0
59.7679 47.2563 0
38.8816 50.9377 0
61.3556 50.8713 0
39.1846 52.7184 0
38.4487 53.2765 0
38.1536 54.3848 0
37.0005 55.1456 0
36.4914 56.9174 0
34.8389 58.4358 0
33.3263 60.2891 0
30.7039 62.3928 0
27.9379 64.5376 0
27.1786 7.73642 0
38.6597 8.21544 0
59.8733 8.43651 0
71.7578 7.80988 0
19.1824 64.4806 0
14.8877 62.7403 0
10.6913 59.9472 0
6.2468 56.8982 0
5.96428 50.9687 0
94.2712 52.0644 0
93.3627 57.1171 0
89.3819 60.466 0
84.6321 62.9844 0
79.5266 64.6643 0
74.6246 63.7072 0
70.3125 62.4354 0
66.8712 60.99 0
65.2492 58.3225 0
62.7448 57.0022 0
62.0975 55.4749 0
61.8022 54.3666 0
61.0844 52.6338 0
93.504 14.5084 0
89.7937 20.65 0
86.0941 24.965 0
6.24229 14.5021 0
13.0228 24.4357 0
9.79074 20.6414 0
5.73669 45.4052 0
5.64378 40.4659 0
12.3194 34.5783 0
94.2557 46.9497 0
88.1134 36.9126 0
93.374 42.2287 0
41.092 47.9344 0
40.4309 47.8079 0
42.133 48.1262 0
43.4642 48.325 0
42.7973 48.2346 0
44.7508 48.4081 0
46.0904 48.5348 0
45.4198 48.4805 0
47.4413 48.6023 0
48.7857 48.6566 0
48.1131 48.6385 0
50.1337 48.7527 0
51.4791 48.7345 0
50.8065 48.7526 0
52.7667 48.7182 0
54.1091 48.6275 0
53.4385 48.6819 0
55.3892 48.5354 0
56.7251 48.3725 0
56.0582 48.463 0
58.007 48.2101 0
59.3325 47.9752 0
58.6713 48.1016 0
39.3657 51.3908 0
39.3132 51.9362 0
60.9558 51.8515 0
60.9033 51.3062 0
38.0086 50.2661 0
39.1315 49.4517 0
61.7967 49.8577 0
61.8195 49.2893 0
60.9799 49.4949 0
39.5145 47.9868 0
39.1702 48.1052 0
60.9498 48.0629 0
60.4626 47.9186 0
39.4633 50.4812 0
60.5051 50.4984 0
39.4866 49.8414 0
39.482 50.103 0
60.4864 50.1203 0
60.4818 49.8587 0
39.639 49.2649 0
39.6284 48.757 0
39.6369 49.0109 0
60.5044 49.2899 0
60.5065 49.0359 0
60.5151 48.7821 0
61.0026 48.9263 0
39.2839 48.8753 0
60.9573 50.0635 0
38.9792 50.0281 0
60.8977 47.1995 0
39.056 47.3351 0
62.6363 49.6522 0
37.038 50.5043 0
61.7539 51.679 0
38.7839 51.8472 0
58.6381 47.3123 0
56.0748 47.6371 0
53.5148 47.8212 0
50.9398 47.8538 0
48.2438 47.6617 0
45.5423 47.5267 0
42.9694 47.3606 0
40.8881 46.9771 0
89.1701 44.607 0
10.9176 40.7433 0
13.2803 16.119 0
85.8802 16.3238 0
63.1896 55.1444 0
68.9482 58.3014 0
78.9833 59.681 0
89.3275 54.7224 0
11.7383 52.6744 0
19.1941 59.5054 0
66.6983 15.6376 0
30.7739 15.3654 0
26.3148 61.9568 0
32.1332 57.8187 0
35.0057 54.4859 0
37.3122 52.9638 0
62.5305 47.8471 0
37.7363 48.5021 0
75.9209 28.5589 0
20.5334 28.4717 0
47.9169 19.1528 0
60.1615 44.7112 0
63.1336 45.6077 0
37.0507 45.8572 0
39.6888 44.649 0
65.1469 48.1523 0
65.0382 52.1334 0
34.8011 51.4397 0
35.006 48.4139 0
57.4831 45.3446 0
54.9503 45.1128 0
52.5861 45.7041 0
50.3004 44.8815 0
47.2301 44.4473 0
44.3911 44.6997 0
41.9465 45.1746 0
74.3412 42.5436 0
80.2789 48.7132 0
17.9931 43.1785 0
21.2949 50.6235 0
34.4564 29.5731 0
59.9756 30.1204 0
67.8034 53.4319 0
73.4184 52.8632 0
54.459 38.6212 0
46.5117 32.7791 0
26.2118 55.2301 0
31.9669 52.4599 0
69.7529 39.888 0
30.9883 40.2577 0
57.5905 41.9487 0
63.2386 41.1224 0
66.8991 44.6278 0
33.6461 44.9187 0
37.2407 41.5057 0
41.7226 42.2908 0
68.0564 50.951 0
32.7476 50.016 0
53.2245 42.8513 0
49.6362 40.7766 0
74.2927 46.528 0
25.7288 42.9977 0
71.9708 47.9964 0
26.5425 48.0168 0
69.0668 47.9763 0
32.1432 47.8267 0
71.0631 45.0219 0
29.6287 46.0302 0
29.8187 49.9409 0
88.1404 34.2634 0
96.89 38.811 0
91.2932 35.6001 0
92.2313 38.4547 0
96.0825 37.6509 0
88.5016 40.6372 0
3.11016 38.8113 0
11.8915 33.0429 0
10.0138 34.89 0
3.91779 37.6512 0
8.31909 37.3774 0
11.6968 36.9064 0
11.4062 22.5398 0
10.9985 26.3854 0
9.38218 24.4931 0
11.8834 28.8548 0
4.15018 19.8768 0
5.35449 22.3957 0
8.24329 22.7372 0
11.5345 18.3785 0
13.1496 20.2783 0
8.01522 17.5747 0
6.96924 20.26 0
5.19446 17.1873 0
6.70053 24.8392 0
7.80259 26.6204 0
4.21225 14.5753 0
9.75979 15.3125 0
87.9444 22.8085 0
90.4102 24.4964 0
88.5601 26.6477 0
91.5491 22.7409 0
95.85 19.8765 0
94.6456 22.3953 0
87.6971 29.1656 0
[...]
    <PointData>
      <DataArray type="Float64" NumberOfComponents="2" Name="Displacement" format="ascii">
-0.00111858 -0.345829
0.00164697 -0.346684
-0.000292774 -0.345428
0.000285393 -0.344987
0.000591394 -0.344684
0.000803784 -0.344428
0.000933819 -0.34424
0.00101695 -0.344109
0.00104945 -0.343997
0.00105041 -0.343919
0.00102029 -0.343872
0.000968042 -0.343851
0.000893242 -0.343833
0.000803447 -0.343832
0.000700074 -0.343846
0.000588872 -0.343873
0.000470714 -0.343897
0.000351102 -0.343932
0.000232903 -0.343977
0.000120061 -0.344034
1.68518e-05 -0.344091
-7.42971e-05 -0.344165
-0.000148714 -0.344256
-0.000202944 -0.344369
-0.000227632 -0.344491
-0.000223691 -0.344649
-0.000181078 -0.344847
-9.55992e-05 -0.345094
8.65691e-05 -0.34536
0.000347355 -0.345719
0.000837209 -0.346214
-0.00607873 -0.345147
-0.0049293 -0.345194
-0.00378673 -0.345282
-0.00260133 -0.345481
-0.0989728 -0.437585
-0.00719226 -0.34515
-0.00830862 -0.345178
-0.00993709 -0.345249
-0.0115811 -0.345361
-0.013967 -0.34559
-0.0163836 -0.345896
-0.0199305 -0.346476
-0.0235238 -0.347215
-0.0287783 -0.348575
-0.0340693 -0.350269
-0.0378857 -0.351698
-0.0416846 -0.3533
-0.0454455 -0.355084
-0.049153 -0.357031
-0.054388 -0.360131
-0.0594496 -0.363543
-0.064286 -0.367253
-0.0513563 -0.485392
-0.0981278 -0.446378
-0.0962884 -0.454228
-0.0936953 -0.461052
-0.0905008 -0.466864
-0.0869231 -0.471737
0.065205 -0.30318
-0.0427259 -0.484206
-0.0325043 -0.481066
-0.0205811 -0.475655
0 0
-0.0241615 -0.0218914
-0.034111 -0.0362778
-0.0354031 -0.0478789
-0.0293468 -0.0620989
-0.0210836 -0.0759261
-0.000290573 -0.329493
0 0
0 0
0 0
0 0
0.01917 -0.319231
0.0385978 -0.281751
0.0506994 -0.203105
-0.064522 -0.303924
0.0242575 -0.0218588
0.034261 -0.0364058
0.0355782 -0.0480783
0.0295411 -0.0623605
0.0212781 -0.0761955
0.051504 -0.485772
0.0428722 -0.484578
0.0327092 -0.481426
0.0207506 -0.476084
0.0989193 -0.438186
0.0583742 -0.485934
0.0643235 -0.485168
0.0696352 -0.483861
0.0744022 -0.481879
0.078857 -0.479402
0.00643517 -0.346025
0.0986087 -0.428956
0.0969985 -0.419129
0.0939442 -0.408913
0.0893885 -0.398592
0.0853236 -0.391555
0.0805432 -0.384703
0.0750537 -0.378162
0.0689317 -0.372008
0.0643467 -0.368048
0.0595243 -0.364353
0.0544774 -0.360951
0.0492575 -0.35786
0.0418212 -0.354156
0.034233 -0.351108
0.0289626 -0.349433
0.0237423 -0.34809
0.0201639 -0.347352
0.00532002 -0.346086
0.00420953 -0.346185
0.00303269 -0.346385
-0.00668645 -0.335458
0.0295444 -0.334033
0.0231478 -0.322205
0.0391828 -0.261311
-0.0395356 -0.276806
-0.00609035 -0.361693
-0.011971 -0.330381
-0.0278159 -0.409678
-0.00483864 -0.350752
-0.081559 -0.422552
-0.0256248 -0.0466159
0.0251841 -0.0475094
-0.0429437 -0.391287
-0.0156136 -0.356402
-0.00474982 -0.370573
-0.00660531 -0.369905
0.00266968 -0.368889
-0.00873539 -0.369342
0.00711381 -0.371201
0.00374024 -0.359386
-0.00170642 -0.36458
0.00126772 -0.366043
-0.00518447 -0.359476
-0.0126434 -0.371168
-0.0178938 -0.374959
-0.0120845 -0.376341
0.0058524 -0.34169
-0.00459583 -0.342059
-0.00773223 -0.342004
0.00731444 -0.374688
0.0113889 -0.37363
-0.013165 -0.351746
0.0125741 -0.351158
-0.00129145 -0.369219
0.00404726 -0.362967
0.0104453 -0.35492
-0.0120533 -0.354384
0.00117924 -0.368691
0.00501126 -0.342436
-0.00130398 -0.342337
-0.00519618 -0.342863
-0.00756929 -0.36588
0.0107675 -0.370351
0.0111467 -0.343534
0.0108554 -0.348915
0.00160207 -0.359246
-0.00379816 -0.361512
0.00439625 -0.36375
-0.000982775 -0.361552
-0.0114375 -0.34975
-0.011283 -0.344023
-0.0166832 -0.370866
-0.0193794 -0.381512
0.0140581 -0.338894
0.00558182 -0.339997
-0.00263793 -0.341547
-0.0125147 -0.341478
-0.0250157 -0.388522
-0.0220857 -0.390321
0.0185596 -0.385668
0.017432 -0.379609
0.0216723 -0.377677
0.0211052 -0.374275
-0.0172254 -0.338653
-0.0173974 -0.346091
0.0165278 -0.345728
0.0242779 -0.335332
-0.0113755 -0.381595
0.00198376 -0.367551
0.0144814 -0.352055
-0.00164229 -0.367082
0.0167362 -0.387252
0.00598225 -0.342893
0.00379444 -0.342386
0.000310818 -0.342595
0.00180234 -0.342425
-0.00108803 -0.343035
-0.00282945 -0.343238
-0.0017938 -0.343233
-0.00493386 -0.343433
-0.00751481 -0.362891
-0.0134474 -0.365869
0.0172755 -0.368954
0.00943858 -0.365533
0.00663084 -0.34337
0.00782878 -0.343853
0.00997572 -0.345355
0.0094256 -0.347481
0.0055194 -0.352741
0.00146867 -0.357009
-0.00181635 -0.357971
-0.00582993 -0.35372
-0.00985532 -0.34833
-0.0100183 -0.346203
-0.00730622 -0.344335
-0.00581601 -0.343835
-0.0187818 -0.369074
-0.0294536 -0.385298
0.0204898 -0.33118
-0.00144484 -0.339589
-0.0113742 -0.338032
-0.0354251 -0.402244
0.0303396 -0.399808
0.02737 -0.383329
0.0224145 -0.370514
-0.0269851 -0.334083
0.0320455 -0.328889
-0.0187148 -0.39298
0.0194636 -0.346904
-0.0352157 -0.324569
-0.0153876 -0.351685
0.00517473 -0.375983
0.00431795 -0.343354
0.00307048 -0.342976
0.00112281 -0.343095
-0.000504525 -0.343415
-0.00174318 -0.343615
-0.00316224 -0.34394
-0.00945135 -0.361373
0.010591 -0.362479
0.00560169 -0.34444
0.00592825 -0.347464
0.000883937 -0.354194
-0.00119599 -0.354984
-0.00572353 -0.348259
-0.00477774 -0.345007
-0.0181449 -0.360723
-0.0221027 -0.36554
-0.0252518 -0.371058
-0.0343398 -0.379237
-0.054305 -0.40578
-0.05115 -0.413771
0.0367108 -0.295585
0.00727621 -0.332419
-0.029922 -0.312874
-0.046578 -0.418658
0.0442916 -0.417871
0.0438685 -0.406897
0.0409464 -0.394568
0.0354147 -0.383521
0.0263995 -0.369743
0.0248278 -0.363494
-0.0369096 -0.313721
0.0419063 -0.305804
-0.0394666 -0.418619
-0.0096174 -0.387583
0.0388247 -0.318036
0.0263715 -0.40875
0.0438724 -0.427796
-0.0259982 -0.339043
0.00645719 -0.379329
0.00307861 -0.343911
0.00360745 -0.344357
0.00247511 -0.343433
0.00297628 -0.34355
0.00138033 -0.343412
0.00199138 -0.343367
7.72528e-05 -0.343621
0.000664847 -0.343528
-0.000783952 -0.343865
-0.000314164 -0.343772
-0.00183167 -0.344081
-0.00133865 -0.34392
-0.00259851 -0.344864
-0.00209124 -0.344401
-0.00309944 -0.355294
-0.00692182 -0.357592
-0.0129796 -0.359825
0.0168603 -0.359347
0.0127991 -0.35977
0.00516007 -0.357391
0.0020617 -0.355974
0.00437823 -0.345217
0.00430064 -0.346438
0.00304312 -0.349183
0.00135576 -0.351207
-0.00209167 -0.351994
-0.00306719 -0.349976
-0.00390261 -0.347119
-0.00346945 -0.34577
-0.0183163 -0.353546
-0.0248877 -0.361746
-0.0390246 -0.372572
-0.0555807 -0.393752
-0.0669317 -0.42137
0.0230587 -0.191773
0.0195381 -0.31462
0.00126278 -0.33263
-0.0143732 -0.324328
-0.0270459 -0.20698
-0.0593713 -0.439292
0.0610137 -0.441338
0.0564036 -0.405564
0.0342946 -0.37447
0.0232209 -0.356959
0.00295393 -0.0844563
-0.0344446 -0.240391
-0.00497187 -0.0807842
0.029796 -0.227287
-0.0344866 -0.43064
0.0299042 -0.331837
0.0516599 -0.287124
0.0439404 -0.441072
-0.0499617 -0.295994
-0.0145215 -0.352461
0.00205514 -0.344314
0.00174976 -0.343807
0.00123907 -0.343701
0.000506678 -0.343802
-0.000210782 -0.343972
-0.000791859 -0.344237
-0.00115944 -0.344805
-0.00626841 -0.353793
-0.0129382 -0.353408
0.0111021 -0.354263
0.00386185 -0.353736
0.0020271 -0.345927
-0.000235892 -0.34957
-0.00258642 -0.349898
0.00217424 -0.351213
-0.000378794 -0.350328
-0.00136435 -0.346416
-0.011676 -0.349731
0.0117321 -0.351439
-0.019549 -0.348912
-0.0221901 -0.352245
-0.0273775 -0.353906
-0.0311911 -0.359259
-0.0397612 -0.362368
-0.0475025 -0.370575
-0.0568365 -0.378414
-0.0675382 -0.391312
-0.0780217 -0.404486
0.0172046 -0.203311
0.0064693 -0.305609
-0.00608515 -0.312931
-0.0164203 -0.218902
-0.0813463 -0.43813
-0.0780077 -0.45083
-0.072766 -0.460992
-0.0677965 -0.471302
-0.0531426 -0.464996
0.0563359 -0.467971
0.0681867 -0.470795
0.0742027 -0.462268
0.0785052 -0.450088
0.0814105 -0.434337
0.0754521 -0.415126
0.0681374 -0.396467
0.0603213 -0.380438
0.0471078 -0.371688
0.0401764 -0.359695
0.0327484 -0.356224
0.0274768 -0.354539
0.0194367 -0.350912
0.0238934 -0.0844448
-0.00104462 -0.153117
-0.0274308 -0.22525
-0.0242179 -0.082723
0.0227022 -0.211788
0.000127045 -0.148691
-0.0364132 -0.456725
-0.0159511 -0.449049
0.0295608 -0.342548
0.0417465 -0.459904
-0.0107899 -0.370632
0.0238531 -0.444975
0.000945073 -0.344891
0.000838664 -0.345331
0.00113226 -0.344449
0.00125917 -0.344101
0.00121503 -0.344255
0.00127421 -0.343913
0.00114692 -0.343831
0.00122142 -0.343865
0.000944712 -0.343818
0.000684606 -0.343849
0.000819636 -0.343832
0.000401622 -0.343912
0.000114975 -0.343991
0.000257766 -0.343951
-0.000133155 -0.344096
-0.000353799 -0.344245
-0.000250131 -0.344167
-0.000482191 -0.34445
-0.000524785 -0.344769
-0.000518034 -0.344598
-0.000394039 -0.345219
-0.000123433 -0.345931
-0.000282253 -0.345541
-0.0136033 -0.347888
-0.016019 -0.348206
0.0159385 -0.350173
0.0135412 -0.349826
-0.00903648 -0.35251
-0.00524739 -0.348455
0.00763016 -0.352435
0.00538963 -0.352111
0.00585178 -0.349652
0.000189953 -0.346846
-0.000324853 -0.347755
0.00073033 -0.348866
0.00010575 -0.347607
-0.00963096 -0.347359
0.0100297 -0.348094
-0.00687857 -0.34722
-0.00800866 -0.347251
0.00842411 -0.347985
0.00730854 -0.347953
-0.00432476 -0.346672
-0.00199048 -0.34679
-0.00320225 -0.346715
0.00486708 -0.348034
0.00377243 -0.348033
0.00266039 -0.348048
0.00357929 -0.349496
-0.00277958 -0.347807
0.00822766 -0.349742
-0.00774096 -0.349115
-0.00139281 -0.348316
0.00153582 -0.34764
0.00721066 -0.354815
-0.0104437 -0.355823
0.0153154 -0.353268
-0.0156836 -0.350382
-0.00128701 -0.345383
-0.000992754 -0.344465
-0.000521359 -0.344087
0.000137074 -0.343886
0.000888585 -0.343737
0.00153906 -0.343716
0.00187026 -0.344021
0.00232665 -0.3449
0.0275204 -0.422874
-0.0116236 -0.403988
-0.00193257 -0.139335
-0.00134075 -0.147391
0.0314209 -0.360884
0.048728 -0.387062
0.0629799 -0.42622
0.0589331 -0.453498
-0.0517635 -0.444138
-0.0640911 -0.43174
-0.0297661 -0.283177
0.0316925 -0.264846
-0.0676371 -0.409139
-0.0457599 -0.381496
-0.0288794 -0.366821
-0.0210234 -0.356738
0.000903252 -0.35261
-0.00242843 -0.351817
-0.0444524 -0.293747
0.0461607 -0.283721
0.00469063 -0.33116
-0.00601268 -0.346065
-0.00484053 -0.351193
0.00463453 -0.350338
0.00660354 -0.345348
0.00334923 -0.35936
0.0187077 -0.365101
-0.015631 -0.36391
-0.00382526 -0.358642
-0.00367071 -0.344371
-0.00257679 -0.343668
-0.000994973 -0.343589
0.000122859 -0.343238
0.00220409 -0.34296
0.00384797 -0.34308
0.00466493 -0.343842
-0.00917005 -0.359126
0.0245002 -0.399512
-0.00543525 -0.378014
-0.0287994 -0.400969
0.0329902 -0.320349
-0.0224195 -0.330572
0.0262602 -0.37605
0.029785 -0.392309
-0.0067003 -0.341101
0.00767711 -0.33644
-0.0397351 -0.398514
-0.0220991 -0.37433
-0.0197722 -0.345945
0.018924 -0.345979
-0.00790757 -0.343104
-0.0143272 -0.345248
-0.00670721 -0.355764
0.00633831 -0.354734
0.0135652 -0.344562
0.008571 -0.342708
0.0161317 -0.372235
-0.0114673 -0.367387
-0.00275934 -0.342812
0.000717922 -0.341828
0.00597595 -0.3746
0.00777403 -0.360119
0.00873113 -0.374474
-0.0103969 -0.377231
0.005694 -0.367952
-0.00385489 -0.364131
-0.00307064 -0.36337
0.000373558 -0.36449
-0.0139828 -0.374875
-0.0306234 -0.345419
0.00698699 -0.466916
-0.0155198 -0.406046
0.00451467 -0.425631
-0.000629573 -0.460786
0.010051 -0.399147
-0.006823 -0.466579
0.0442982 -0.326794
0.0220913 -0.381932
0.000882314 -0.460376
0.00252099 -0.4161
0.0105524 -0.372187
0.0108886 -0.179034
0.0258072 -0.208118
0.0142654 -0.171785
0.0416685 -0.247709
-0.0108782 -0.0929444
0.00117789 -0.11372
0.00490471 -0.147012
-0.00190297 -0.145728
0.00849755 -0.174598
-0.0133416 -0.112756
-0.0065993 -0.119968
-0.0193223 -0.0900449
0.0143687 -0.139023
0.0245279 -0.162238
-0.0273942 -0.0721412
-0.0145674 -0.109055
-0.0136813 -0.188239
-0.0145543 -0.174926
-0.0280298 -0.217192
-0.00513601 -0.149805
0.0110336 -0.093224
-0.00110336 -0.114085
-0.0449727 -0.258555
-0.0123299 -0.185264
-0.000233113 -0.151953
0.0127634 -0.115706
0.0193399 -0.0912567
0.00641923 -0.122318
0.0274038 -0.0730864
-0.0143241 -0.139504
-0.0244354 -0.162857
0.0130028 -0.113687
-0.0101242 -0.279396
0.00837512 -0.300245
0.00961135 -0.256396
0.0041241 -0.327832
0 0
0 0
-0.00859278 -0.131569
-0.0248284 -0.255018
-0.0184119 -0.298561
0.010972 -0.268385
-0.00930588 -0.250038
-0.00930378 -0.295279
0.0091778 -0.119564
0 0
-0.0500514 -0.202387
-0.00519371 -0.325954
0.020474 -0.285694
0.0256254 -0.236775
-0.0358177 -0.323956
-0.0365553 -0.325463
-0.0129358 -0.356462
-0.0558546 -0.297291
0.00801432 -0.38512
-0.0386466 -0.319412
-0.0462253 -0.300235
0.0469319 -0.307649
0.0300765 -0.334337
0.0497078 -0.308993
0.00870873 -0.363315
0.0565822 -0.290698
0.049014 -0.287831
0.0441431 -0.309225
0.0426517 -0.263045
0.0435384 -0.261398
0.0262346 -0.221381
0.0137774 -0.184059
0.0401031 -0.258057
-0.0436343 -0.269597
-0.0311153 -0.234188
-0.0465778 -0.271037
-0.0186717 -0.196091
-0.0422585 -0.27026
-0.0133741 -0.149178
-0.0258768 -0.204706
-0.0144845 -0.139011
-0.0325321 -0.247514
0.00474031 -0.0471322
0.00194886 -0.117457
-0.015762 -0.175867
-0.00521102 -0.330913
-0.00419417 -0.329289
-0.0126798 -0.319383
-0.000364562 -0.332509
-0.0229287 -0.308946
-0.00545339 -0.331125
0.00296021 -0.331635
0.00932928 -0.326564
0.0151383 -0.310142
0.00563134 -0.325085
0.0267171 -0.294628
0.0129826 -0.325927
0.00933588 -0.137836
0.0120994 -0.127181
0.023896 -0.188819
-0.00563172 -0.0456918
0.0311994 -0.22905
0.0113268 -0.164511
-0.00465249 -0.111674
-0.0370535 -0.32196
-0.0263346 -0.337675
-0.0115304 -0.356604
-0.017695 -0.349476
0.045109 -0.301966
0.0285901 -0.333475
0.0105139 -0.357463
0.0116847 -0.35565
-0.0412338 -0.310731
-0.0316512 -0.33109
-0.022921 -0.343095
-0.0279321 -0.336302
-0.0315051 -0.329927
-0.0326752 -0.325216
-0.0373013 -0.317969
-0.0257679 -0.331619
-0.0304322 -0.323612
-0.041498 -0.303583
-0.0248066 -0.338882
0.0334158 -0.323947
0.029127 -0.328617
0.0283357 -0.332583
0.0231125 -0.339464
0.0191385 -0.340498
0.0261394 -0.337573
-0.0201983 -0.334932
-0.0222893 -0.336839
-0.0208046 -0.340595
-0.016701 -0.341347
-0.0168954 -0.335125
-0.0146342 -0.338243
-0.011789 -0.34024
-0.00901337 -0.339776
0.00668907 -0.338406
0.00287651 -0.338351
0.00229484 -0.339835
-0.0001664 -0.340818
-0.00438988 -0.340402
0.00287085 -0.341014
0.0192615 -0.337503
0.0232751 -0.332735
0.0174741 -0.335497
0.027086 -0.326681
0.0140638 -0.334332
0.0115325 -0.337562
0.0148085 -0.341019
0.00982369 -0.339461
0.00594733 -0.340877
0.00740172 -0.342035
0.00335349 -0.341735
0.00968168 -0.340587
0.0115505 -0.341022
0.0160189 -0.0242005
0.0156636 -0.0621545
0.0122576 -0.0323536
0.0164506 -0.0912963
0 0
0 0
0.0196053 -0.0195346
0.0331169 -0.0537324
0.0265863 -0.0672818
0.0300756 -0.0391156
-0.0347041 -0.190998
-0.0418424 -0.207677
-0.0302036 -0.0387544
-0.0270425 -0.0659356
-0.0331152 -0.0531306
-0.0180734 -0.0873199
0.0348516 -0.190167
0.0418723 -0.206564
-0.0197265 -0.0194466
-0.0127184 -0.031792
-0.0167968 -0.0604084
-0.0161369 -0.0239605
-0.0389797 -0.281316
-0.0196693 -0.318908
-0.0215105 -0.323919
-0.0138408 -0.327502
-0.0225754 -0.318214
-0.00342363 -0.331927
-0.0309518 -0.299691
-0.0269243 -0.322593
-0.0178715 -0.329798
-0.0364426 -0.296637
-0.0398604 -0.29735
-0.0343359 -0.31164
-0.0423934 -0.283474
-0.0357406 -0.276638
-0.0297313 -0.222364
-0.0389014 -0.258898
-0.035377 -0.246493
0.0324006 -0.229959
0.0360155 -0.244956
0.025273 -0.208426
0.0424292 -0.270654
0.0363226 -0.258628
0.0404021 -0.297945
0.0427924 -0.28545
0.0394958 -0.279149
0.0447418 -0.295028
0.0348867 -0.280963
0.0358565 -0.308778
0.0381733 -0.313305
0.022375 -0.326475
0.0155217 -0.328749
0.0145346 -0.331532
0.0140839 -0.327419
0.00615914 -0.331343
0.007667 -0.334075
0.0290227 -0.320057
0.029159 -0.303937
0.0222876 -0.318075
0.0308748 -0.311321
0.037684 -0.320131
0.0341726 -0.326733
0.0416436 -0.310619
0.0210356 -0.344359
0.0375863 -0.318847
0.031524 -0.330867
0.0240895 -0.341011
-0.00384073 -0.337771
-0.00931542 -0.33679
-0.00626658 -0.339086
-0.0148042 -0.333838
0.00084229 -0.336408
-0.0024162 -0.332977
-0.00947039 -0.332843
7.4743e-05 -0.334366
0.0054051 -0.435452
-0.00724306 -0.434304
-0.0049807 -0.450058
-0.00585575 -0.407989
-0.0150267 -0.42656
-0.0117441 -0.457911
0.00893104 -0.452661
0.0177413 -0.443039
0.0129791 -0.422495
0.0152898 -0.375198
0.00558355 -0.394151
0.011555 -0.400823
-0.00145971 -0.389583
0.0239948 -0.408652
0.0248662 -0.36128
0.0193741 -0.358532
0.0521774 -0.268755
0.0491533 -0.226365
0.0435402 -0.240745
0.0307106 -0.229263
0.0370656 -0.219621
0.055387 -0.254042
-0.0490645 -0.22764
-0.0544217 -0.27619
-0.0448635 -0.247627
-0.0383505 -0.226063
-0.0346125 -0.241383
-0.0544987 -0.255246
-0.0470331 -0.311894
-0.0477195 -0.316092
-0.0342825 -0.331696
-0.0603818 -0.298377
-0.0455283 -0.327118
-0.0200751 -0.358996
-0.0236554 -0.346062
-0.0469161 -0.308526
-0.0525853 -0.29612
-0.000772369 -0.377328
0.00916586 -0.390744
-0.0017316 -0.371774
0.0192629 -0.411877
0.0184293 -0.404021
-0.00332644 -0.367745
-0.0139573 -0.353526
-0.0118416 -0.361339
0.000374254 -0.386037
-0.0378238 -0.32087
-0.0428827 -0.310419
-0.0431834 -0.311465
-0.043296 -0.306502
-0.0455112 -0.296288
-0.047918 -0.297924
-0.0443447 -0.310599
-0.0251881 -0.338479
-0.03079 -0.331229
0.0185556 -0.349761
0.00944546 -0.366275
0.0200016 -0.352126
-0.0022247 -0.383692
0.0299613 -0.337192
0.0301572 -0.33236
0.0196092 -0.346351
0.0481747 -0.31473
0.0567477 -0.303522
0.0549547 -0.300053
0.0544445 -0.315593
0.0614548 -0.294125
0.053926 -0.28853
0.0533744 -0.296926
0.0409682 -0.32323
0.0366025 -0.335267
0.0497614 -0.297186
0.0479029 -0.298963
0.0454447 -0.308247
0.0474614 -0.285342
0.0471082 -0.296158
0.0386927 -0.319268
0.0388266 -0.319866
0.0511905 -0.297694
0.0502252 -0.287295
0.0505463 -0.275641
0.0516472 -0.273616
0.0427916 -0.257145
0.0325651 -0.23638
0.049191 -0.275746
0.0476116 -0.274883
0.0470687 -0.27617
0.0454598 -0.274341
0.0354886 -0.244545
-0.0462852 -0.267563
-0.0547635 -0.282238
-0.0523171 -0.283461
-0.050283 -0.284804
-0.0370635 -0.248949
-0.0479925 -0.282525
-0.0470971 -0.285935
-0.0386284 -0.254617
-0.0452274 -0.28257
-0.0210414 -0.344234
-0.0130638 -0.354514
-0.0189096 -0.347418
-0.0195168 -0.347039
-0.0104158 -0.358006
-0.0263126 -0.33824
0.00974403 -0.359462
0.000212274 -0.372245
-0.00110029 -0.376317
0.00211119 -0.368378
-0.00741693 -0.382023
-0.0108666 -0.394284
0.0197166 -0.345217
0.0200085 -0.34488
0.0112139 -0.356228
0.0200931 -0.344566
0.0030967 -0.366658
0.0293023 -0.332422
0.0348493 -0.324821
0.0246308 -0.339272
0.00667104 -0.361975
0.0167586 -0.349422
0.0261097 -0.338362
0.0307863 -0.33134
-0.00147302 -0.372173
0.0116994 -0.355898
0.0141875 -0.353102
0.00522219 -0.363448
-0.00283422 -0.367255
0.00565328 -0.37741
-0.00300672 -0.366762
0.015771 -0.39024
0.0148815 -0.387575
-0.00236603 -0.367018
-0.00352098 -0.366669
0.00845767 -0.410321
0.014857 -0.435938
0.0179569 -0.423117
0.00600402 -0.448671
0.016588 -0.455454
0.026459 -0.432691
-0.001911 -0.399381
-0.0121171 -0.432818
-0.00136561 -0.439419
-0.00471041 -0.416403
-0.00883269 -0.452929
-0.0116052 -0.385796
-0.0207134 -0.419073
-0.0174317 -0.443544
-0.0350044 -0.365778
-0.0286621 -0.400401
-0.0217291 -0.377793
-0.0267091 -0.431381
-0.0370851 -0.416294
0.0333824 -0.452938
0.0287513 -0.466049
0.0379562 -0.470783
-0.0485958 -0.396077
-0.0565728 -0.363721
0.0472068 -0.475159
0.0354349 -0.442739
0.0429316 -0.361701
0.0313954 -0.358294
0.0321321 -0.386976
0.0267682 -0.431033
0.0370899 -0.41601
-0.0272182 -0.452707
-0.0349681 -0.469647
-0.0247925 -0.467824
-0.0446861 -0.474104
0.0477197 -0.396079
0.0577783 -0.364195
-0.0254726 -0.434085
0.0537261 -0.376069
0.0598131 -0.372632
0.0531783 -0.368346
0.0645167 -0.376459
0.0166384 -0.346773
0.0142396 -0.346472
0.0480597 -0.365054
0.0477704 -0.379599
0.0543471 -0.384131
0.064224 -0.388545
0.0740962 -0.39105
0.0704379 -0.382799
0.0787478 -0.397936
0.0118796 -0.346249
0.0102551 -0.346134
0.0584827 -0.391952
0.0785025 -0.42497
0.0886514 -0.427486
0.0862795 -0.417676
0.0902543 -0.436798
0.00864539 -0.346059
0.00753964 -0.34603
0.0819589 -0.407588
0.0687048 -0.421349
0.0722839 -0.43085
0.0797713 -0.442473
0.0874913 -0.453211
0.0895592 -0.445478
0.0852029 -0.459808
0.083004 -0.476175
0.0869175 -0.472218
0.0712976 -0.43869
0.0711202 -0.466532
0.0758324 -0.474377
0.0791588 -0.470264
0.0716527 -0.477232
0.090486 -0.467371
0.0936696 -0.461575
0.0824968 -0.465714
0.0666654 -0.458576