<?xml version="1.0"?>
<VTKFile type="UnstructuredGrid">
  <UnstructuredGrid>
  <Piece NumberOfPoints="3487"  NumberOfCells="1698">
    <Points>
      <DataArray type="Float64" NumberOfComponents="3" format="ascii">
39.9726 48.53 0
60.0281 48.5289 0
40.6339 48.661 0
41.2966 48.7831 0
41.9604 48.8962 0
42.6256 49.0003 0
43.292 49.0953 0
43.9596 49.1813 0
44.6282 49.2582 0
45.2977 49.3261 0
45.968 49.385 0
46.6391 49.4348 0
47.3107 49.4755 0
47.9828 49.5072 0
48.6552 49.5298 0
49.3278 49.5434 0
50.0006 49.5479 0
50.6734 49.5433 0
51.346 49.5297 0
52.0185 49.5069 0
52.6905 49.4752 0
53.3621 49.4344 0
54.0331 49.3845 0
54.7034 49.3255 0
55.3729 49.2576 0
56.0415 49.1806 0
56.709 49.0945 0
57.3753 48.9994 0
58.0405 48.8953 0
58.7043 48.7822 0
59.3668 48.66 0
39.9918 49.5465 0
39.9917 49.2924 0
39.9884 49.0384 0
39.9819 48.7842 0
19.8687 69.4242 0
39.9886 49.8081 0
39.9819 50.0697 0
39.9663 50.4481 0
39.9434 50.826 0
39.8977 51.3721 0
39.837 51.9167 0
39.7227 52.7013 0
39.5772 53.4809 0
39.3122 54.5972 0
38.9833 55.6966 0
38.7063 56.4793 0
38.3969 57.2499 0
38.0558 58.007 0
37.6834 58.7493 0
37.0908 59.7945 0
36.4364 60.8023 0
35.7227 61.769 0
-0.0676135 49.3601 0
17.2592 69.2414 0
14.6958 68.7206 0
12.222 67.8706 0
9.87992 66.7057 0
7.70951 65.2457 0
11.5834 31.4985 0
0.143663 46.542 0
0.752558 43.7828 0
1.74732 41.1382 0
0 0 0
0.107528 3.70055 0
0.511538 7.39024 0
1.20241 11.0422 0
2.17453 14.6286 0
3.08584 17.2678 0
49.9996 -0.433794 0
5.1116 0 0
10.2232 0 0
15.3348 0 0
100 0 0
57.4137 -0.420318 0
64.8277 -0.37109 0
72.2323 -0.267581 0
88.4175 31.4976 0
99.8926 3.70056 0
99.4887 7.39001 0
98.7978 11.0419 0
97.8257 14.6283 0
96.9144 17.2674 0
100.068 49.3596 0
99.8565 46.5415 0
99.2477 43.7824 0
98.2529 41.1376 0
80.1313 69.4234 0
99.9059 51.97 0
99.4035 54.5369 0
98.5697 57.0159 0
97.419 59.365 0
95.9716 61.5435 0
60.0087 49.5453 0
77.6201 69.2774 0
75.147 68.8183 0
72.7508 68.0532 0
70.4692 66.9941 0
68.9786 66.099 0
67.5712 65.0781 0
66.2576 63.9389 0
65.0479 62.6901 0
64.2774 61.768 0
63.5637 60.8013 0
62.9093 59.7934 0
62.3167 58.7482 0
61.6033 57.2489 0
61.0169 55.6955 0
60.6881 54.5962 0
60.4231 53.4797 0
60.2776 52.7002 0
60.0088 49.2913 0
60.0122 49.0372 0
60.0187 48.783 0
52.8136 29.8078 0
26.5534 36.6317 0
40.352 23.944 0
24.9689 22.2622 0
71.9014 22.2768 0
72.7002 43.6682 0
54.7932 23.7615 0
15.2786 47.0915 0
38.3562 49.1546 0
23.53 64.9104 0
7.67502 7.70352 0
91.9663 7.68119 0
29.1269 56.5813 0
37.1699 51.6219 0
28.0843 46.907 0
29.7216 47.8688 0
71.5177 46.3929 0
30.9782 48.7676 0
70.5211 47.8694 0
31.6389 45.3615 0
30.8853 46.8133 0
70.0654 46.3834 0
68.9792 44.7117 0
31.279 49.8615 0
30.887 51.082 0
28.1767 48.8599 0
45.3125 41.0076 0
53.8405 40.6285 0
56.0219 40.1774 0
73.1341 47.1439 0
70.1249 49.1085 0
68.3219 42.1462 0
32.3212 42.4768 0
26.1352 45.3902 0
27.68 44.3988 0
30.3126 43.0324 0
70.4035 42.3435 0
72.6781 45.659 0
44.8526 42.7996 0
51.4297 41.7062 0
55.406 42.2922 0
32.4429 48.806 0
68.5651 49.3468 0
39.4853 41.7902 0
35.4477 43.1031 0
32.8954 46.2598 0
33.5733 48.0064 0
67.1083 47.9497 0
67.9823 46.1885 0
65.0643 42.7658 0
60.4109 41.4274 0
32.3518 51.1212 0
28.1983 50.7153 0
41.7885 37.0155 0
46.8274 37.4194 0
52.0471 39.5913 0
58.669 38.961 0
26.5823 51.6072 0
24.2797 50.04 0
74.2443 49.6499 0
71.1816 50.3561 0
69.1626 51.9377 0
67.9369 52.0735 0
59.7499 36.0827 0
66.4899 40.3956 0
34.1201 40.7723 0
36.0434 35.5165 0
23.1731 46.8762 0
21.6476 42.9892 0
28.3644 41.5177 0
74.3164 44.4198 0
76.6521 48.2556 0
43.0585 43.3873 0
46.2713 42.6734 0
49.9683 42.7212 0
48.434 42.5041 0
51.7624 43.7584 0
54.0864 43.8741 0
52.9048 44.1697 0
56.2692 43.4227 0
33.8743 49.1009 0
33.7699 50.6125 0
66.553 51.4258 0
66.6046 49.4369 0
41.8366 43.6246 0
40.7084 43.3619 0
38.4678 42.9683 0
37.149 43.5721 0
35.3501 45.2768 0
34.3266 46.5536 0
66.0224 46.277 0
65.0145 45.0062 0
63.1827 43.2553 0
61.6971 42.8073 0
58.8734 43.2219 0
57.535 43.5384 0
33.3778 51.8337 0
29.1393 53.4335 0
40.8494 30.7433 0
50.8842 35.7336 0
55.6592 34.0168 0
23.528 53.1448 0
76.946 51.615 0
70.2636 53.0413 0
66.4282 52.6661 0
65.4524 34.9019 0
30.9771 34.3235 0
19.4295 46.9898 0
26.1434 39.7581 0
71.9757 33.8473 0
72.0412 41.1057 0
77.4897 45.0171 0
43.1702 44.8292 0
45.8116 44.4656 0
48.7655 44.5564 0
51.443 45.1847 0
53.7677 45.3004 0
56.2157 45.1206 0
34.9006 49.813 0
65.0958 50.0286 0
40.8193 44.8036 0
38.3718 45.1442 0
36.0289 47.0244 0
64.1395 46.7686 0
61.6455 45.0503 0
58.8209 44.9196 0
36.0507 52.0879 0
34.8962 52.8477 0
33.4781 53.3557 0
31.8696 55.1423 0
26.0434 58.5926 0
22.9497 56.9912 0
32.4265 22.4716 0
47.0426 26.4284 0
63.1144 22.803 0
19.9466 54.6968 0
80.2293 53.9627 0
75.8414 55.4784 0
71.9761 55.8393 0
69.1242 55.1677 0
65.7992 53.6754 0
64.122 53.5241 0
68.1239 28.7579 0
26.8103 29.8524 0
17.2026 51.4282 0
14.5915 42.1492 0
22.4339 33.8214 0
84.9192 46.5538 0
84.7609 51.6935 0
75.1486 37.6749 0
81.2192 43.6508 0
42.4587 46.1594 0
41.4185 45.9675 0
44.9672 46.0051 0
43.6813 45.922 0
47.7372 45.9463 0
46.3869 45.8789 0
50.6201 46.2595 0
49.2725 46.1634 0
53.0502 46.6544 0
51.763 46.6707 0
55.5119 46.2667 0
54.2324 46.3588 0
58.0597 46.22 0
56.7786 46.3825 0
36.37 48.3462 0
36.0198 49.3462 0
35.9152 50.8589 0
63.4016 51.7931 0
63.8415 50.7799 0
63.8933 48.7896 0
63.8395 47.8877 0
40.2897 45.7044 0
39.3739 45.8832 0
38.0541 46.4862 0
37.394 47.0691 0
62.8314 46.6166 0
62.0148 46.2933 0
60.5283 45.8463 0
59.399 45.903 0
38.0419 52.2944 0
36.1507 53.6112 0
34.0355 56.4647 0
29.5436 59.5182 0
22.8078 61.0451 0
21.7583 15.2653 0
39.9813 15.9756 0
48.9021 11.2448 0
56.931 16.6988 0
76.6219 15.4913 0
15.5776 56.729 0
84.5827 57.1627 0
73.467 59.1743 0
66.5543 55.3322 0
62.4794 53.2997 0
82.942 7.7729 0
79.7126 22.4235 0
16.3046 7.85725 0
18.3737 22.1491 0
10.6867 46.4367 0
16.6061 35.7484 0
15.5673 30.1851 0
89.4487 49.305 0
83.267 31.0222 0
81.5633 39.0283 0
41.9293 47.0607 0
44.2564 47.3356 0
46.8935 47.4861 0
49.592 47.6496 0
52.2272 47.7293 0
54.7945 47.6209 0
57.3561 47.3663 0
37.3851 49.392 0
37.9066 51.0644 0
62.1988 50.5541 0
62.5847 48.6384 0
39.9727 47.0477 0
38.3961 47.8089 0
38.5091 48.5786 0
61.7674 48.2761 0
61.714 47.4133 0
59.7676 47.1474 0
38.8776 50.8278 0
61.3596 50.7609 0
39.178 52.6089 0
38.4413 53.1659 0
38.1444 54.2736 0
36.9901 55.0327 0
36.4782 56.8035 0
34.8232 58.3193 0
33.3076 60.1701 0
30.6817 62.2696 0
27.9124 64.4101 0
27.184 7.67165 0
38.6616 8.11853 0
59.8715 8.33732 0
71.7527 7.7402 0
19.1558 64.3422 0
14.8623 62.5976 0
10.6677 59.8011 0
6.22491 56.7486 0
5.94733 50.821 0
94.2892 51.9158 0
93.3848 56.9677 0
89.406 60.3195 0
84.6577 62.842 0
79.5532 64.5271 0
74.6493 63.5763 0
70.3349 62.3105 0
66.891 60.8703 0
65.2647 58.2056 0
62.7582 56.8892 0
62.1084 55.363 0
61.8114 54.2553 0
61.091 52.5236 0
93.5112 14.482 0
89.7929 20.6019 0
86.0849 24.8938 0
6.23493 14.4763 0
13.0304 24.3689 0
9.79124 20.5947 0
5.72533 45.26 0
5.63916 40.3231 0
12.3293 34.4696 0
94.2688 46.8036 0
88.1096 36.7949 0
93.3813 42.0873 0
41.0922 47.826 0
40.431 47.6994 0
42.1333 48.0178 0
43.4645 48.2168 0
42.7976 48.1263 0
44.7512 48.2999 0
46.0908 48.4266 0
45.4201 48.3723 0
47.4416 48.4941 0
48.7859 48.5484 0
48.1134 48.5303 0
50.1339 48.6444 0
51.4791 48.6262 0
50.8066 48.6444 0
52.7667 48.6099 0
54.1091 48.5192 0
53.4385 48.5736 0
55.3891 48.4271 0
56.7249 48.2641 0
56.0581 48.3546 0
58.007 48.1016 0
59.3325 47.8664 0
58.6713 47.9929 0
39.361 51.2816 0
39.3078 51.8268 0
60.9612 51.7416 0
60.908 51.1964 0
38.0055 50.1554 0
39.1297 49.3422 0
61.7994 49.747 0
61.8214 49.1786 0
60.982 49.385 0
39.5144 47.8778 0
39.17 47.9959 0
60.9502 47.9533 0
60.4627 47.8093 0
39.46 50.3721 0
60.5085 50.3891 0
39.4842 49.7323 0
39.4792 49.9939 0
60.4893 50.011 0
60.4844 49.7494 0
39.6374 49.156 0
39.6276 48.6481 0
39.6357 48.902 0
60.5061 49.1805 0
60.5079 48.9266 0
60.5161 48.6727 0
61.0039 48.8164 0
39.2828 48.766 0
60.9602 49.9536 0
38.9765 49.9184 0
60.8974 47.09 0
39.0563 47.2258 0
62.6388 49.5407 0
37.0344 50.3924 0
61.7591 51.568 0
38.7786 51.7372 0
58.6378 47.2037 0
56.0745 47.5287 0
53.5147 47.713 0
50.9398 47.7456 0
48.2441 47.5535 0
45.5428 47.4186 0
42.97 47.2524 0
40.8888 46.8686 0
89.1788 44.4728 0
10.9142 40.615 0
13.2799 16.075 0
85.8795 16.2772 0
63.2 55.031 0
68.9643 58.1796 0
79.0038 59.5464 0
89.3466 54.5786 0
11.7216 52.5336 0
19.1732 59.369 0
66.6889 15.5477 0
30.7839 15.2813 0
26.2926 61.8278 0
32.1181 57.6986 0
34.9961 54.3706 0
37.3051 52.8517 0
62.531 47.7362 0
37.7353 48.3915 0
75.9064 28.4659 0
20.5485 28.3818 0
47.9184 19.0481 0
60.1597 44.6024 0
63.1321 45.4972 0
37.052 45.7471 0
39.6908 44.5404 0
65.1482 48.0392 0
65.0445 52.0185 0
34.7958 51.3252 0
35.0046 48.301 0
57.482 45.2363 0
54.9495 45.0047 0
52.5858 45.596 0
50.3005 44.7735 0
47.2307 44.3393 0
44.3923 44.5917 0
41.9479 45.0664 0
74.3382 42.4303 0
80.2869 48.5869 0
17.9915 43.0589 0
21.2855 50.4969 0
34.4671 29.4719 0
59.9684 30.016 0
67.8122 53.3136 0
73.4282 52.7395 0
54.4569 38.5138 0
46.5141 32.673 0
26.1988 55.1045 0
31.9596 52.3421 0
69.7465 39.7789 0
30.9944 40.1486 0
57.588 41.8408 0
63.2341 41.0137 0
66.897 44.5158 0
33.6481 44.807 0
37.245 41.3972 0
41.7253 42.1829 0
68.0619 50.8338 0
32.7437 49.9004 0
53.2237 42.7434 0
49.6364 40.669 0
74.2947 46.4098 0
25.7313 42.884 0
71.9737 47.8784 0
26.5391 47.8979 0
69.0688 47.8605 0
32.1418 47.712 0
71.0622 44.9073 0
29.6287 45.9154 0
29.814 49.8228 0
88.1301 34.1537 0
96.8916 38.6624 0
91.2876 35.4709 0
92.2322 38.3193 0
96.0817 37.5042 0
88.5046 40.5105 0
3.10858 38.6628 0
11.9062 32.9392 0
10.0215 34.7684 0
3.91871 37.5047 0
8.32045 37.245 0
11.7006 36.7881 0
11.4101 22.4834 0
11.0073 26.3199 0
9.38732 24.4391 0
11.8973 28.7767 0
4.1473 19.8479 0
5.35551 22.3602 0
8.24542 22.6911 0
11.5343 18.3326 0
13.1527 20.2232 0
8.01139 17.5394 0
6.96767 20.2225 0
5.18878 17.1592 0
6.70582 24.7958 0
7.81117 26.5696 0
4.20392 14.5528 0
9.75548 15.2783 0
87.9396 22.7491 0
90.405 24.4415 0
88.5506 26.5793 0
91.547 22.6939 0
95.8529 19.8476 0
94.6446 22.3598 0
87.6821 29.084 0
85.9849 20.5869 0
[...]
    <PointData>
      <DataArray type="Float64" NumberOfComponents="2" Name="Displacement" format="ascii">
-0.00159967 -0.4545
0.00230286 -0.455623
-0.000472238 -0.454027
0.000313507 -0.453476
0.00072813 -0.453097
0.00101592 -0.452774
0.00119369 -0.452537
0.00130861 -0.452374
0.00135613 -0.452233
0.00136157 -0.452135
0.00132581 -0.452078
0.0012606 -0.452054
0.00116551 -0.452033
0.00105049 -0.452033
0.000917497 -0.452053
0.00077413 -0.452089
0.000621568 -0.452121
0.000467105 -0.452166
0.00031454 -0.452225
0.000169131 -0.452299
3.65123e-05 -0.452372
-8.00133e-05 -0.452465
-0.000174341 -0.452581
-0.000241737 -0.452726
-0.000269868 -0.452881
-0.000259679 -0.453082
-0.000198312 -0.453334
-7.95839e-05 -0.453648
0.000169565 -0.453982
0.0005253 -0.454434
0.00119211 -0.455058
-0.00824217 -0.453531
-0.00670602 -0.453603
-0.0051785 -0.453732
-0.00359201 -0.454014
-0.131343 -0.575819
-0.00972673 -0.453528
-0.0112141 -0.453558
-0.0133826 -0.453644
-0.0155704 -0.453785
-0.0187423 -0.454079
-0.0219529 -0.454476
-0.0266621 -0.455234
-0.0314297 -0.456206
-0.0383977 -0.457997
-0.0454102 -0.460232
-0.0504659 -0.462118
-0.0554974 -0.464235
-0.0604774 -0.466593
-0.0653857 -0.469166
-0.072315 -0.473264
-0.0790137 -0.477775
-0.0854136 -0.48268
-0.0676135 -0.63986
-0.130227 -0.587506
-0.127786 -0.597956
-0.124338 -0.60706
-0.12008 -0.61483
-0.1153 -0.621364
0.0870557 -0.39929
-0.0560965 -0.638312
-0.0424908 -0.634174
-0.0266521 -0.627034
0 0
-0.0317408 -0.0287295
-0.0447636 -0.0475452
-0.0463615 -0.0626966
-0.0382656 -0.0813208
-0.0272866 -0.0994746
-0.000377563 -0.433794
0 0
0 0
0 0
0 0
0.0252959 -0.420318
0.050952 -0.37109
0.0671271 -0.267581
-0.0861177 -0.400276
0.0318691 -0.0286878
0.0449636 -0.0477153
0.0465957 -0.0629606
0.038526 -0.0816664
0.0275478 -0.0998304
0.0678153 -0.640358
0.0562969 -0.638798
0.0427675 -0.634646
0.0268834 -0.627596
0.13128 -0.576608
0.0770052 -0.640543
0.0849808 -0.639491
0.0921117 -0.637707
0.0985168 -0.63502
0.104499 -0.631667
0.00871704 -0.454684
0.130863 -0.564356
0.128724 -0.551327
0.124675 -0.537794
0.11864 -0.524129
0.113259 -0.514816
0.106932 -0.505752
0.099668 -0.497098
0.0915672 -0.48896
0.0855003 -0.483723
0.0791189 -0.478837
0.0724395 -0.474339
0.0655299 -0.470254
0.055684 -0.465358
0.0456321 -0.461332
0.0386469 -0.459122
0.0317244 -0.457354
0.0269758 -0.456384
0.00722684 -0.454775
0.00574212 -0.454919
0.00416575 -0.455202
-0.00882545 -0.441305
0.0391516 -0.439487
0.0305657 -0.424093
0.0518868 -0.344199
-0.0522956 -0.364571
-0.00800481 -0.475756
-0.0157944 -0.434806
-0.0366967 -0.53943
-0.00657157 -0.460989
-0.108237 -0.555877
-0.0336564 -0.0612032
0.0330822 -0.062384
-0.0570773 -0.514546
-0.020899 -0.468416
-0.00638548 -0.487388
-0.00886735 -0.486447
0.00363424 -0.48516
-0.0117077 -0.485658
0.00954362 -0.488157
0.00484589 -0.472571
-0.00237708 -0.479412
0.00178973 -0.481368
-0.00676355 -0.472713
-0.0168983 -0.488042
-0.0238633 -0.493034
-0.0161197 -0.49496
0.00769403 -0.449241
-0.00603835 -0.449732
-0.0101703 -0.449661
0.00977615 -0.492842
0.015222 -0.49133
-0.0173501 -0.462562
0.0165658 -0.461769
-0.00176954 -0.485687
0.00529296 -0.477415
0.0137554 -0.466763
-0.015892 -0.466085
0.00164177 -0.484945
0.00657096 -0.450197
-0.00170765 -0.450091
-0.00681206 -0.450761
-0.0101729 -0.481058
0.0144136 -0.486964
0.014662 -0.451642
0.0142716 -0.458738
0.00199969 -0.472341
-0.00517373 -0.475285
0.00596684 -0.478246
-0.00117964 -0.475398
-0.0150418 -0.459851
-0.0148411 -0.45229
-0.0222723 -0.487602
-0.0258005 -0.501751
0.01855 -0.445646
0.00735951 -0.44708
-0.00346812 -0.449077
-0.016491 -0.448994
-0.0332553 -0.511031
-0.0293274 -0.513498
0.0246799 -0.507316
0.0232293 -0.499226
0.0288821 -0.496603
0.0281433 -0.492086
-0.022738 -0.445358
-0.0229571 -0.455116
0.0218049 -0.45462
0.0320899 -0.441052
-0.0150964 -0.502081
0.00265525 -0.483684
0.0191318 -0.46307
-0.00212547 -0.482896
0.0222165 -0.509507
0.00783569 -0.450779
0.00497701 -0.45014
0.000411599 -0.450422
0.00236672 -0.450199
-0.00141741 -0.450992
-0.003693 -0.451248
-0.00233743 -0.451245
-0.00645239 -0.451492
-0.0101112 -0.477081
-0.0179893 -0.480988
0.0230735 -0.485047
0.0126661 -0.480565
0.00868246 -0.451393
0.0102629 -0.452027
0.0131033 -0.454015
0.0123718 -0.456813
0.0071898 -0.463734
0.00181581 -0.469356
-0.00227553 -0.470631
-0.00759976 -0.465032
-0.0129393 -0.457939
-0.0131568 -0.455133
-0.0095709 -0.452661
-0.00760672 -0.452008
-0.0250689 -0.485205
-0.0391816 -0.506683
0.0270748 -0.435689
-0.00190349 -0.446578
-0.0150129 -0.444578
-0.0470143 -0.529201
0.0402612 -0.526023
0.0364297 -0.50407
0.0298978 -0.487083
-0.0356784 -0.439445
0.0424218 -0.432691
-0.0247464 -0.517237
0.025773 -0.456379
-0.0466578 -0.427074
-0.0203351 -0.462598
0.00686224 -0.494731
0.00563053 -0.451371
0.0040123 -0.450901
0.00147131 -0.451068
-0.000650261 -0.451487
-0.00226141 -0.451739
-0.00410691 -0.452146
-0.0126902 -0.475048
0.0142074 -0.476497
0.00730709 -0.452772
0.00773083 -0.456742
0.00103547 -0.465603
-0.00144739 -0.466648
-0.00745714 -0.457787
-0.00621575 -0.453517
-0.0242503 -0.474132
-0.0294937 -0.480499
-0.0336583 -0.487799
-0.045698 -0.498601
-0.0721072 -0.533723
-0.0678745 -0.544372
0.0485152 -0.389223
0.00961044 -0.437409
-0.0395105 -0.411891
-0.0617451 -0.550949
0.0587105 -0.549924
0.0582371 -0.535281
0.0544192 -0.518903
0.0471176 -0.50427
0.0351941 -0.48604
0.0331261 -0.477764
-0.0488455 -0.412899
0.0555553 -0.402532
-0.052229 -0.551054
-0.0125332 -0.510439
0.0515543 -0.418582
0.0347786 -0.538223
0.0580313 -0.563226
-0.034465 -0.446098
0.00847767 -0.499317
0.00398258 -0.452086
0.00466873 -0.452654
0.00321733 -0.45149
0.0038632 -0.45163
0.0018014 -0.451479
0.00259416 -0.451413
0.000108872 -0.451756
0.000871917 -0.451634
-0.00100532 -0.45207
-0.000397621 -0.451953
-0.00235988 -0.452336
-0.00172424 -0.452135
-0.00333848 -0.453327
-0.00268653 -0.45274
-0.00425573 -0.467026
-0.00933529 -0.470047
-0.0173862 -0.47297
0.022553 -0.472304
0.0171512 -0.472889
0.00699618 -0.469783
0.00287884 -0.467929
0.00568014 -0.453773
0.00557334 -0.455369
0.0039031 -0.458978
0.0016626 -0.461643
-0.00263699 -0.462687
-0.00393285 -0.460023
-0.0050438 -0.456264
-0.00447578 -0.454497
-0.0245 -0.464616
-0.033204 -0.475456
-0.0519344 -0.489749
-0.0738383 -0.517761
-0.08882 -0.554359
0.0305169 -0.252722
0.0257227 -0.414292
0.0016575 -0.43794
-0.0189202 -0.427008
-0.0357437 -0.272774
-0.0786483 -0.578295
0.0808363 -0.580989
0.0749031 -0.533413
0.0456607 -0.492272
0.0310108 -0.469109
0.00380546 -0.111245
-0.0457046 -0.316626
-0.00645895 -0.106382
0.0395932 -0.299326
-0.0453843 -0.567282
0.0398174 -0.436882
0.068796 -0.378067
0.0579643 -0.58097
-0.066506 -0.389714
-0.0193517 -0.463971
0.00262475 -0.452602
0.00225723 -0.451975
0.0016107 -0.451855
0.000666468 -0.451994
-0.000259827 -0.452215
-0.00100313 -0.452548
-0.00145325 -0.453262
-0.00847184 -0.465012
-0.0173503 -0.46446
0.0149087 -0.465596
0.0052719 -0.464944
0.0025616 -0.454674
-0.000447532 -0.459456
-0.00357142 -0.459872
0.00302538 -0.461611
-0.000366754 -0.460459
-0.00168433 -0.455318
-0.0156825 -0.45959
0.0157562 -0.461845
-0.0261499 -0.458467
-0.0296484 -0.462876
-0.0365288 -0.465061
-0.041576 -0.472139
-0.0529335 -0.476236
-0.0631789 -0.487085
-0.0755342 -0.497445
-0.0896942 -0.514505
-0.10357 -0.531938
0.0225471 -0.268078
0.00839292 -0.402518
-0.0078986 -0.412122
-0.0214852 -0.288589
-0.107925 -0.576563
-0.103443 -0.593479
-0.096398 -0.607077
-0.0896845 -0.620904
-0.0700888 -0.612678
0.074354 -0.61659
0.090219 -0.620211
0.0983216 -0.608754
0.104118 -0.592476
0.108027 -0.571511
0.100155 -0.546031
0.0904883 -0.521321
0.0801555 -0.500112
0.062661 -0.48855
0.0534958 -0.472689
0.0436547 -0.468108
0.0366658 -0.465888
0.0260015 -0.461108
0.0311518 -0.110841
-0.00181883 -0.20125
-0.0365948 -0.296428
-0.0315713 -0.108568
0.0303718 -0.278629
0.000626576 -0.195403
-0.0477762 -0.601887
-0.0205631 -0.591881
0.0394709 -0.451318
0.0548859 -0.606042
-0.0146178 -0.488372
0.0310968 -0.586439
0.00115026 -0.453337
0.00099243 -0.453886
0.00142185 -0.452788
0.0016101 -0.452354
0.00154263 -0.452546
0.00164346 -0.452122
0.00148721 -0.452022
0.00157998 -0.452064
0.00123036 -0.452012
0.000896235 -0.452056
0.00106995 -0.452033
0.000531567 -0.452139
0.000161985 -0.452242
0.000346036 -0.45219
-0.000156836 -0.452376
-0.000437888 -0.452565
-0.000306337 -0.452466
-0.000596122 -0.452825
-0.000636933 -0.453228
-0.000636365 -0.453013
-0.000442892 -0.453794
-5.00988e-05 -0.454681
-0.000280519 -0.454198
-0.0182525 -0.457133
-0.0214626 -0.457543
0.0213556 -0.460143
0.0181689 -0.459694
-0.0121598 -0.463293
-0.00711937 -0.457941
0.0102902 -0.463194
0.00730524 -0.462779
0.00792482 -0.459515
0.000125632 -0.455854
-0.000560417 -0.45705
0.00110072 -0.458512
0.00026742 -0.456854
-0.012968 -0.456452
0.013501 -0.457414
-0.00930065 -0.456287
-0.0108074 -0.456319
0.0113624 -0.45728
0.00987474 -0.457245
-0.0058921 -0.45558
-0.00276858 -0.455759
-0.00439142 -0.455647
0.00661388 -0.457375
0.0051502 -0.457383
0.0036622 -0.457413
0.00489239 -0.459325
-0.00382561 -0.457099
0.0110938 -0.459617
-0.0104436 -0.458797
-0.00171503 -0.457809
0.00190639 -0.456919
0.00972721 -0.466353
-0.0140241 -0.467678
0.0205177 -0.464252
-0.0210105 -0.460431
-0.00159798 -0.453991
-0.00125328 -0.452835
-0.000658926 -0.45236
0.000189109 -0.452104
0.00115975 -0.451906
0.00199385 -0.451867
0.00239856 -0.452238
0.00296706 -0.453348
0.0361372 -0.557085
-0.0150321 -0.532299
-0.002274 -0.183328
-0.00202496 -0.193972
0.0418838 -0.474282
0.0647747 -0.508906
0.0835552 -0.560821
0.0779462 -0.597254
-0.0684152 -0.584906
-0.0849954 -0.568171
-0.0392099 -0.373031
0.0417696 -0.348951
-0.0897923 -0.538123
-0.0608449 -0.501551
-0.0384887 -0.482166
-0.0280868 -0.468835
0.00133867 -0.463474
-0.00336368 -0.462418
-0.0589705 -0.386747
0.0613279 -0.373595
0.00618489 -0.435923
-0.00784512 -0.454906
-0.00628451 -0.461659
0.00601355 -0.460528
0.00863021 -0.453967
0.00458624 -0.472415
0.0249905 -0.479925
-0.0208989 -0.478373
-0.00521657 -0.471467
-0.00476376 -0.452695
-0.00334868 -0.4518
-0.00128642 -0.45171
0.000166597 -0.451256
0.00288333 -0.450888
0.00502361 -0.451026
0.00607575 -0.451996
-0.0121144 -0.472444
0.0324351 -0.525805
-0.00709649 -0.497634
-0.0381734 -0.527639
0.043639 -0.421557
-0.0296219 -0.434914
0.0349869 -0.494408
0.0395887 -0.516004
-0.00882362 -0.448507
0.0101383 -0.442521
-0.0527801 -0.524174
-0.0294571 -0.492163
-0.0261311 -0.455008
0.0250034 -0.45503
-0.0103826 -0.451074
-0.0188751 -0.453936
-0.00877106 -0.467775
0.00828233 -0.466403
0.0178674 -0.453021
0.011258 -0.450546
0.0215397 -0.489416
-0.0153509 -0.483022
-0.00361108 -0.4507
0.000946736 -0.449435
0.00798254 -0.492773
0.0102649 -0.473747
0.0116722 -0.492513
-0.0138568 -0.496197
0.00767417 -0.483836
-0.0052394 -0.478775
-0.00397795 -0.477897
0.00039546 -0.479341
-0.0186598 -0.492969
-0.0409031 -0.455155
0.00863006 -0.615503
-0.02111 -0.535283
0.00544637 -0.561019
-0.0014606 -0.607419
0.0129815 -0.525887
-0.00840752 -0.615062
0.0590513 -0.430522
0.0297547 -0.503494
0.00180071 -0.606881
0.00387556 -0.548482
0.014321 -0.490446
0.014805 -0.235403
0.034607 -0.273585
0.0193978 -0.225691
0.0555818 -0.325816
-0.0137569 -0.121844
0.00220302 -0.149162
0.00703668 -0.19307
-0.00215316 -0.191631
0.0115566 -0.2297
-0.0171694 -0.148088
-0.00816992 -0.157484
-0.025006 -0.118115
0.019661 -0.182449
0.0331106 -0.21299
-0.0357236 -0.0945868
-0.0188857 -0.143322
-0.0184671 -0.247563
-0.0197638 -0.22984
-0.0375183 -0.285575
-0.00732884 -0.196758
0.0139668 -0.122213
-0.00209987 -0.149644
-0.0599404 -0.340193
-0.0165916 -0.243791
-0.000645582 -0.199857
0.0164196 -0.151983
0.0250363 -0.119714
0.00794332 -0.160585
0.0357423 -0.0958347
-0.0195971 -0.183083
-0.0329837 -0.213806
0.016835 -0.149439
-0.0131656 -0.368119
0.0111951 -0.395447
0.0129353 -0.337897
0.00549434 -0.431642
0 0
0 0
-0.011245 -0.173603
-0.0326319 -0.336062
-0.0241656 -0.393267
0.0142808 -0.353662
-0.0125354 -0.329548
-0.0124219 -0.388927
0.0120451 -0.157785
0 0
-0.0662646 -0.26665
-0.00690396 -0.429177
0.0268817 -0.376381
0.0337036 -0.312076
-0.0476371 -0.426438
-0.0486933 -0.428559
-0.0173367 -0.469441
-0.0744678 -0.391431
0.0104274 -0.50717
-0.0513073 -0.420386
-0.0614408 -0.395265
0.0624907 -0.40503
0.0400982 -0.440313
0.066234 -0.406839
0.0117659 -0.478533
0.0754415 -0.382772
0.065212 -0.378995
0.0587128 -0.407067
0.0567412 -0.346374
0.0579811 -0.344114
0.0349565 -0.291434
0.0184435 -0.24231
0.0532688 -0.339852
-0.0579991 -0.355026
-0.0413816 -0.308365
-0.0620063 -0.356871
-0.0248733 -0.258214
-0.0560632 -0.355924
-0.0177251 -0.196627
-0.0340822 -0.269866
-0.0190986 -0.18337
-0.0428991 -0.326154
0.00621452 -0.0621039
0.00240887 -0.154646
-0.0209543 -0.231673
-0.00684404 -0.435671
-0.00547599 -0.433569
-0.0166426 -0.420571
-0.000482442 -0.437788
-0.0301889 -0.406851
-0.00717897 -0.435898
0.00389656 -0.436604
0.0122603 -0.429974
0.0198706 -0.408455
0.00735733 -0.428057
0.0351868 -0.38807
0.0171024 -0.429092
0.0124256 -0.181643
0.0159852 -0.167754
0.0315043 -0.248937
-0.00738932 -0.060195
0.0411734 -0.301859
0.0151283 -0.216672
-0.00596124 -0.147001
-0.0491405 -0.423691
-0.0349745 -0.444403
-0.0153104 -0.469272
-0.0234343 -0.459784
0.0599267 -0.397523
0.0380137 -0.438936
0.0140736 -0.470633
0.0155641 -0.468112
-0.0546742 -0.408983
-0.041948 -0.435634
-0.0303401 -0.451344
-0.0369742 -0.442411
-0.0416951 -0.434048
-0.0432311 -0.427897
-0.0493966 -0.418436
-0.0340598 -0.436243
-0.0402372 -0.425827
-0.0549778 -0.399628
-0.0327973 -0.445726
0.0442222 -0.426236
0.0385229 -0.432322
0.0374813 -0.43749
0.0305486 -0.446461
0.0252677 -0.447757
0.0345818 -0.444037
-0.026682 -0.440553
-0.0294462 -0.443015
-0.0274744 -0.447909
-0.022031 -0.448848
-0.0223142 -0.440822
-0.0193163 -0.444835
-0.0155449 -0.447402
-0.0118868 -0.446813
0.00882845 -0.445042
0.00379814 -0.444989
0.00302798 -0.446884
-0.000216649 -0.448144
-0.00578445 -0.447617
0.00378192 -0.448387
0.0254381 -0.443854
0.0307623 -0.437681
0.023082 -0.441267
0.0358081 -0.429824
0.0185773 -0.439786
0.0152246 -0.443943
0.0195269 -0.448396
0.0129563 -0.446381
0.00783245 -0.448203
0.009726 -0.449679
0.00440998 -0.449308
0.0127561 -0.447822
0.0152171 -0.448382
0.0210899 -0.031786
0.0205542 -0.081746
0.0161451 -0.0425564
0.0214777 -0.120034
0 0
0 0
0.0257818 -0.0256302
0.0433846 -0.0704404
0.0348202 -0.0883366
0.0394939 -0.0513078
-0.0465669 -0.25083
-0.0560269 -0.272787
-0.0396575 -0.0508297
-0.0354139 -0.086558
-0.0433774 -0.0696454
-0.0236084 -0.114782
0.0467674 -0.249735
0.0560753 -0.271315
-0.0259384 -0.0255133
-0.0167503 -0.0418115
-0.0220415 -0.0794344
-0.0212432 -0.0314691
-0.0514436 -0.370514
-0.0259441 -0.419893
-0.0283909 -0.426354
-0.0182456 -0.431109
-0.0297672 -0.418948
-0.00451103 -0.436882
-0.0408299 -0.394663
-0.0355716 -0.42455
-0.0235996 -0.43397
-0.0481549 -0.390602
-0.0527467 -0.391492
-0.0453917 -0.410218
-0.056161 -0.37329
-0.0471803 -0.364399
-0.0393828 -0.292953
-0.0515229 -0.341022
-0.0467659 -0.324755
0.0428805 -0.302979
0.0477567 -0.322659
0.0335302 -0.274563
0.0562818 -0.356446
0.0479869 -0.340727
0.0534821 -0.392263
0.0567097 -0.375876
0.0522402 -0.367648
0.0593762 -0.38842
0.0460503 -0.370081
0.047419 -0.406464
0.0505438 -0.412344
0.029562 -0.429608
0.020496 -0.432634
0.0191997 -0.436197
0.0185809 -0.430975
0.00812966 -0.436087
0.0101281 -0.439499
0.0383582 -0.421223
0.0384656 -0.400236
0.0293964 -0.41876
0.0407824 -0.409848
0.049959 -0.421278
0.0453323 -0.429956
0.0552541 -0.408839
0.0279171 -0.453146
0.049795 -0.419585
0.041752 -0.435302
0.0318811 -0.448581
-0.00506788 -0.444263
-0.0122974 -0.442999
-0.0082668 -0.445938
-0.0195505 -0.439186
0.00111521 -0.442512
-0.00318502 -0.438172
-0.0125004 -0.437956
0.00010297 -0.439916
0.00776197 -0.57402
-0.00903632 -0.572456
-0.00598937 -0.593257
-0.00731082 -0.537689
-0.0194228 -0.562164
-0.0149505 -0.603604
0.0124606 -0.59671
0.0241223 -0.58403
0.0177847 -0.556958
0.0206577 -0.494514
0.00784367 -0.519502
0.0158248 -0.528371
-0.00157467 -0.513348
0.032375 -0.53874
0.0333283 -0.47618
0.0259885 -0.472436
0.0695781 -0.353646
0.0657633 -0.297397
0.0581459 -0.316488
0.0410136 -0.301585
0.0495916 -0.288613
0.0740979 -0.333933
-0.0656319 -0.299091
-0.0725489 -0.363533
-0.0598804 -0.3256
-0.0512709 -0.297127
-0.0461521 -0.317624
-0.0728886 -0.335523
-0.0626535 -0.410662
-0.0635881 -0.416274
-0.0457025 -0.436883
-0.0805534 -0.392883
-0.0607089 -0.430965
-0.0269238 -0.473052
-0.031604 -0.455855
-0.0624707 -0.406192
-0.0700543 -0.389886
-0.00128368 -0.49705
0.0118868 -0.514694
-0.00248932 -0.489608
0.0251866 -0.542627
0.0241564 -0.532167
-0.00454982 -0.484191
-0.0186441 -0.465464
-0.0159386 -0.475984
0.000162797 -0.508645
-0.0502583 -0.422335
-0.0569661 -0.40861
-0.0574186 -0.410006
-0.0574656 -0.40346
-0.0604343 -0.39008
-0.0637386 -0.39224
-0.0590031 -0.40889
-0.0335089 -0.445559
-0.040923 -0.435967
0.0248153 -0.46067
0.0127906 -0.482535
0.0267761 -0.463894
-0.0026511 -0.505486
0.0399684 -0.444154
0.0401786 -0.437631
0.0261781 -0.456088
0.0641983 -0.414467
0.0756608 -0.39966
0.0732494 -0.395067
0.0725935 -0.415697
0.0819989 -0.387291
0.0718562 -0.379912
0.0711162 -0.390947
0.0545969 -0.425699
0.0488266 -0.441716
0.0662401 -0.391277
0.0637281 -0.393604
0.0604781 -0.4058
0.0631015 -0.375722
0.0626281 -0.389915
0.0514807 -0.420288
0.0516865 -0.421112
0.0681745 -0.391951
0.0668548 -0.378289
0.0673322 -0.362909
0.0688229 -0.360172
0.0570196 -0.338418
0.0434229 -0.311073
0.0655024 -0.363076
0.0633678 -0.361958
0.062619 -0.36366
0.0604347 -0.361263
0.0471871 -0.322024
-0.0616455 -0.35223
-0.0729844 -0.371586
-0.0696898 -0.373234
-0.066941 -0.375014
-0.0493564 -0.327711
-0.0638419 -0.372022
-0.0626085 -0.376501
-0.0513035 -0.335328
-0.0600571 -0.372086
-0.0279736 -0.453079
-0.0173798 -0.466596
-0.0251097 -0.457204
-0.0258833 -0.456642
-0.0137974 -0.471042
-0.0349125 -0.445092
0.0130921 -0.473354
0.000453063 -0.490173
-0.00123719 -0.495633
0.00292108 -0.48498
-0.00967372 -0.50301
-0.0141145 -0.519389
0.0262852 -0.454511
0.0266129 -0.453943
0.0149695 -0.468936
0.0267537 -0.453587
0.00419366 -0.482643
0.0389887 -0.437599
0.0463008 -0.427516
0.032722 -0.446511
0.00889264 -0.476392
0.0222669 -0.459856
0.0346206 -0.445211
0.0408695 -0.436043
-0.00188898 -0.489852
0.015535 -0.468338
0.0188004 -0.464584
0.00691237 -0.478201
-0.00380629 -0.483353
0.007457 -0.496697
-0.00399625 -0.48262
0.0208419 -0.513642
0.0197079 -0.51004
-0.00311173 -0.482876
-0.00475755 -0.482667
0.0107709 -0.540743
0.0191611 -0.574563
0.0233558 -0.55757
0.0073564 -0.591421
0.0213968 -0.600336
0.0346382 -0.570144
-0.00297565 -0.526381
-0.0166558 -0.57056
-0.00240422 -0.579238
-0.00677919 -0.548894
-0.0123233 -0.597062
-0.0158079 -0.508505
-0.0280337 -0.55246
-0.023709 -0.584695
-0.0468668 -0.482219
-0.0385447 -0.527873
-0.0292426 -0.498013
-0.0359876 -0.568669
-0.0497321 -0.548795
0.0437592 -0.596893
0.0375392 -0.614288
0.0497828 -0.620503
-0.0649945 -0.522161
-0.0756558 -0.479496
0.062108 -0.626247
0.0465602 -0.583345
0.0574225 -0.476884
0.0420158 -0.472289
0.0431315 -0.510191
0.0360755 -0.56821
0.0497398 -0.548421
-0.0355384 -0.596646
-0.0457988 -0.619022
-0.0322635 -0.616659
-0.0587401 -0.62487
0.0638319 -0.522155
0.0772344 -0.480138
-0.0333055 -0.57201
0.071424 -0.494337
0.0794926 -0.489785
0.07071 -0.484119
0.0857176 -0.494845
0.0222945 -0.455627
0.0191073 -0.455236
0.0639336 -0.47977
0.063523 -0.499022
0.0722322 -0.505009
0.0853144 -0.510837
0.0983903 -0.514145
0.0935528 -0.50323
0.104546 -0.523256
0.0159696 -0.454951
0.0138077 -0.454806
0.0776986 -0.515358
0.104184 -0.559083
0.117651 -0.562404
0.114512 -0.549397
0.119772 -0.574762
0.0116638 -0.454715
0.0101902 -0.454683
0.108793 -0.536034
0.0911841 -0.554311
0.0959078 -0.566916
0.105828 -0.582333
0.11608 -0.596595
0.118841 -0.5863
0.113019 -0.605398
0.110062 -0.627315
0.115301 -0.621993
0.0945648 -0.577349
0.094174 -0.614481
0.100451 -0.624931
0.104919 -0.619401
0.0948365 -0.628788
0.120068 -0.615495
0.124311 -0.607744
0.109395 -0.613296
0.0882613 -0.603913
0.0845947 -0.60967
0.0824354 -0.618604
0.0803373 -0.630059
0.0880143 -0.630452
0.0717408 -0.62902
0.127747 -0.598684
0.130173 -0.588245