<?xml version="1.0"?>
<VTKFile type="UnstructuredGrid">
  <UnstructuredGrid>
  <Piece NumberOfPoints="3487"  NumberOfCells="1698">
    <Points>
      <DataArray type="Float64" NumberOfComponents="3" format="ascii">
39.9737 48.7997 0
60.0266 48.7992 0
40.6343 48.9304 0
41.2964 49.0523 0
41.96 49.1651 0
42.625 49.269 0
43.2913 49.3639 0
43.9588 49.4498 0
44.6274 49.5267 0
45.2969 49.5945 0
45.9673 49.6533 0
46.6383 49.7031 0
47.31 49.7439 0
47.9821 49.7756 0
48.6546 49.7982 0
49.3274 49.8118 0
50.0002 49.8163 0
50.6731 49.8117 0
51.3459 49.7981 0
52.0184 49.7754 0
52.6905 49.7437 0
53.3622 49.703 0
54.0332 49.6531 0
54.7036 49.5943 0
55.3731 49.5264 0
56.0416 49.4495 0
56.7091 49.3636 0
57.3753 49.2686 0
58.0403 49.1648 0
58.7039 49.0519 0
59.366 48.93 0
39.9969 49.8155 0
39.9959 49.5615 0
39.9916 49.3075 0
39.9842 49.0536 0
19.9478 69.7665 0
39.9946 50.0771 0
39.9889 50.3387 0
39.9745 50.7171 0
39.953 51.0951 0
39.9092 51.6414 0
39.8504 52.1862 0
39.7389 52.9713 0
39.5964 53.7514 0
39.3355 54.8688 0
39.0109 55.9696 0
38.7369 56.7534 0
38.4306 57.5252 0
38.0924 58.2837 0
37.723 59.0275 0
37.1345 60.0752 0
36.4842 61.0858 0
35.7743 62.0554 0
-0.0273845 49.7417 0
17.3378 69.5908 0
14.7729 69.0763 0
12.297 68.2318 0
9.95229 67.0717 0
7.77897 65.6158 0
11.5304 31.7363 0
0.176886 46.9227 0
0.777539 44.161 0
1.76274 41.5121 0
0 0 0
0.126347 3.71755 0
0.538029 7.41832 0
1.22975 11.0791 0
2.19693 14.6766 0
3.10161 17.3265 0
49.9998 -0.175668 0
5.1116 0 0
10.2232 0 0
15.3348 0 0
100 0 0
57.3986 -0.170176 0
64.7973 -0.150126 0
72.192 -0.108175 0
88.4699 31.7359 0
99.8737 3.71754 0
99.4621 7.41819 0
98.7703 11.079 0
97.8032 14.6765 0
96.8985 17.3263 0
100.027 49.7415 0
99.8232 46.9225 0
99.2226 44.1608 0
98.2373 41.5118 0
80.0521 69.7662 0
99.8599 52.3519 0
99.3526 54.9181 0
98.5145 57.396 0
97.3599 59.7434 0
95.9087 61.9199 0
60.0033 49.815 0
77.5412 69.6128 0
75.0694 69.1459 0
72.6756 68.3727 0
70.3976 67.3053 0
68.9103 66.4047 0
67.5067 65.3783 0
66.1975 64.2339 0
64.9926 62.9802 0
64.2257 62.055 0
63.5159 61.0853 0
62.8655 60.0748 0
62.277 59.0271 0
61.5695 57.5249 0
60.9892 55.9691 0
60.6646 54.8684 0
60.4037 53.7509 0
60.2612 52.9708 0
60.0043 49.561 0
60.0086 49.307 0
60.016 49.0531 0
52.8188 30.0701 0
26.5298 36.893 0
40.3337 24.1962 0
24.9378 22.4672 0
71.9327 22.4939 0
72.705 43.9509 0
54.8026 24.02 0
15.3005 47.4125 0
38.3604 49.4281 0
23.5953 65.2407 0
7.69497 7.73977 0
91.9467 7.71815 0
29.1614 56.8869 0
37.1827 51.8998 0
28.0882 47.1965 0
29.7271 48.1577 0
71.5154 46.6811 0
30.9853 49.056 0
70.5152 48.1594 0
31.6361 45.6421 0
30.8869 47.098 0
70.0642 46.6693 0
68.9832 44.9924 0
31.2893 50.1513 0
30.9015 51.3747 0
28.1865 49.1539 0
45.308 41.2743 0
53.844 40.8955 0
56.0279 40.4444 0
73.1282 47.4367 0
70.1157 49.4002 0
68.3322 42.4209 0
32.3113 42.751 0
26.1364 45.6788 0
27.6769 44.6825 0
30.3044 43.3096 0
70.413 42.6203 0
72.677 45.9471 0
44.8487 43.0669 0
51.4307 41.9734 0
55.4101 42.5598 0
32.4491 49.0916 0
68.5563 49.6359 0
39.4766 42.0583 0
35.4393 43.3754 0
32.8943 46.5402 0
33.5765 48.2885 0
67.1046 48.2337 0
67.9829 46.4708 0
65.0733 43.0388 0
60.4197 41.6959 0
32.3653 51.4107 0
28.2139 51.0133 0
41.7774 37.2802 0
46.8231 37.6848 0
52.0492 39.8579 0
58.6789 39.2276 0
26.6024 51.9108 0
24.2974 50.3452 0
74.2294 49.9514 0
71.1675 50.6526 0
69.1451 52.2325 0
67.9198 52.3657 0
59.7635 36.3472 0
66.5036 40.6659 0
34.1071 41.0423 0
36.0242 35.7785 0
23.1822 47.1746 0
21.646 43.2768 0
28.3529 41.7928 0
74.3176 44.7067 0
76.6387 48.5584 0
43.0538 43.6549 0
46.2684 42.9406 0
49.9681 42.9886 0
48.4326 42.7714 0
51.7632 44.0262 0
54.0885 44.1419 0
52.9062 44.4375 0
56.273 43.6907 0
33.8805 49.3841 0
33.7809 50.898 0
66.5389 51.7137 0
66.5968 49.7221 0
41.8315 43.8925 0
40.7023 43.6302 0
38.46 43.2378 0
37.1416 43.8433 0
35.3459 45.5521 0
34.3256 46.8322 0
66.0237 46.5564 0
65.0189 45.2822 0
63.1904 43.5271 0
61.7049 43.0775 0
58.879 43.4906 0
57.5395 43.8067 0
33.393 52.1217 0
29.163 53.7344 0
40.8332 31.0022 0
50.8854 35.9988 0
55.6682 34.2809 0
23.5563 53.4593 0
76.9218 51.9277 0
70.2416 53.3406 0
66.4101 52.9553 0
65.4738 35.163 0
30.9516 34.5806 0
19.4443 47.2975 0
26.1279 40.0294 0
72.0038 34.1012 0
72.0534 41.3806 0
77.4856 45.3112 0
43.1669 45.0971 0
45.8092 44.7332 0
48.7647 44.8242 0
51.4434 45.4527 0
53.769 45.5685 0
56.2181 45.389 0
34.9084 50.0949 0
65.087 50.3114 0
40.815 45.0723 0
38.3673 45.4153 0
36.0285 47.3008 0
64.1403 47.0456 0
61.6499 45.322 0
58.8246 45.1888 0
36.0655 52.3693 0
34.9141 53.1328 0
33.4986 53.6453 0
31.8973 55.4383 0
26.0869 58.9096 0
22.9906 57.3147 0
32.3974 22.7033 0
47.0368 26.6885 0
63.138 23.0481 0
19.9837 55.0244 0
80.194 54.2897 0
75.8063 55.7965 0
71.9432 56.1475 0
69.0957 55.4671 0
65.7779 53.9639 0
64.1018 53.8076 0
68.1532 29.0034 0
26.7769 30.0918 0
17.2339 51.756 0
14.5989 42.4531 0
22.4028 34.0704 0
84.8985 46.8741 0
84.7261 52.0287 0
75.1694 37.9401 0
81.2142 43.9478 0
42.4564 46.4278 0
41.4158 46.2362 0
44.9654 46.2731 0
43.679 46.1901 0
47.7361 46.2143 0
46.3854 46.1469 0
50.62 46.5276 0
49.272 46.4316 0
53.0508 46.9228 0
51.7632 46.939 0
55.5133 46.5352 0
54.2334 46.6272 0
58.0616 46.489 0
56.7801 46.6512 0
36.3727 48.6233 0
36.0255 49.6252 0
35.9258 51.1395 0
63.3878 52.0733 0
63.831 51.0605 0
63.889 49.0684 0
63.8376 48.1654 0
40.2864 45.9737 0
39.3706 46.1534 0
38.0519 46.7586 0
37.3932 47.343 0
62.8328 46.8912 0
62.0171 46.5663 0
60.5312 46.117 0
59.4015 46.1727 0
38.0568 52.5701 0
36.1709 53.8933 0
34.067 56.7554 0
29.5882 59.8257 0
22.8614 61.3746 0
21.74 15.4159 0
39.966 16.2222 0
48.9011 11.5054 0
56.9423 16.9529 0
76.6433 15.6538 0
15.6249 57.073 0
84.5341 57.5083 0
73.4218 59.4912 0
66.5266 55.6244 0
62.4605 53.578 0
82.9399 7.83915 0
79.7402 22.6121 0
16.3083 7.92058 0
18.3498 22.3273 0
10.7137 46.7745 0
16.5819 36.0084 0
15.5256 30.4101 0
89.4141 49.6509 0
83.3073 31.2541 0
81.575 39.3043 0
41.9278 47.3293 0
44.2551 47.6038 0
46.8926 47.7543 0
49.5916 47.9179 0
52.2274 47.9977 0
54.7951 47.8895 0
57.3569 47.6354 0
37.3903 49.6679 0
37.9173 51.3399 0
62.1896 50.8303 0
62.5813 48.9143 0
39.9713 47.3175 0
38.3965 48.0815 0
38.5114 48.8515 0
61.7654 48.55 0
61.7141 47.6865 0
59.7685 47.4176 0
38.8872 51.1005 0
61.3499 51.0349 0
39.1939 52.8808 0
38.4593 53.4405 0
38.1667 54.5495 0
37.0153 55.3128 0
36.5103 57.086 0
34.8614 58.6083 0
33.3532 60.4653 0
30.7358 62.5751 0
27.9748 64.7261 0
27.1707 7.83158 0
38.6567 8.35821 0
59.8761 8.58268 0
71.7654 7.91231 0
19.2209 64.685 0
14.9246 62.9507 0
10.7256 60.1625 0
6.2787 57.1184 0
5.98915 51.1861 0
94.2448 52.2831 0
93.3307 57.3371 0
89.3469 60.6819 0
84.595 63.1945 0
79.4881 64.8669 0
74.5889 63.9007 0
70.2803 62.6201 0
66.8426 61.1672 0
65.2268 58.4955 0
62.7257 57.1696 0
62.0818 55.6406 0
61.7891 54.5316 0
61.0751 52.7971 0
93.493 14.5476 0
89.7944 20.7213 0
86.1071 25.0701 0
6.25341 14.5406 0
13.0119 24.5345 0
9.79041 20.7106 0
5.7536 45.6187 0
5.65096 40.676 0
12.3052 34.7384 0
94.2362 47.1647 0
88.1187 37.0859 0
93.3631 42.4368 0
41.0916 48.095 0
40.4305 47.9687 0
42.1325 48.2866 0
43.4636 48.4853 0
42.7967 48.3949 0
44.7502 48.5683 0
46.0899 48.6949 0
45.4192 48.6406 0
47.4409 48.7624 0
48.7854 48.8167 0
48.1128 48.7986 0
50.1336 48.9128 0
51.479 48.8947 0
50.8064 48.9128 0
52.7667 48.8784 0
54.1093 48.7879 0
53.4386 48.8422 0
55.3894 48.6959 0
56.7253 48.5331 0
56.0584 48.6235 0
58.0071 48.3709 0
59.3325 48.1362 0
58.6714 48.2625 0
39.3722 51.5527 0
39.3209 52.0982 0
60.9481 52.0145 0
60.8968 51.469 0
38.013 50.4302 0
39.1341 49.6139 0
61.793 50.0218 0
61.8168 49.4532 0
60.977 49.6576 0
39.5145 48.1483 0
39.1704 48.2671 0
60.9494 48.2253 0
60.4624 48.0804 0
39.468 50.6428 0
60.5002 50.6604 0
39.4899 50.003 0
39.4859 50.2646 0
60.4823 50.2822 0
60.4783 50.0206 0
39.6411 49.4262 0
39.6294 48.9185 0
39.6385 49.1723 0
60.502 49.4518 0
60.5046 49.1979 0
60.5137 48.9441 0
61.0008 49.089 0
39.2852 49.0372 0
60.9533 50.2263 0
38.9829 50.1906 0
60.8983 47.3617 0
39.0553 47.497 0
62.6328 49.8174 0
37.043 50.6699 0
61.7466 51.8434 0
38.7914 52.0103 0
58.6386 47.4731 0
56.0752 47.7975 0
53.515 47.9815 0
50.9397 48.014 0
48.2434 47.8218 0
45.5416 47.6868 0
42.9686 47.5208 0
40.8871 47.1376 0
89.1574 44.8046 0
10.9229 40.9322 0
13.281 16.184 0
85.881 16.3925 0
63.1746 55.3124 0
68.9251 58.4817 0
78.9535 59.8798 0
89.2998 54.9342 0
11.7626 52.8818 0
19.2244 59.7068 0
66.7123 15.7699 0
30.759 15.4892 0
26.3468 62.1475 0
32.1549 57.9964 0
35.0195 54.6567 0
37.3222 53.1298 0
62.53 48.0112 0
37.7375 48.6659 0
75.942 28.6961 0
20.5115 28.6042 0
47.9147 19.3074 0
60.1643 44.8723 0
63.1358 45.7712 0
37.0485 46.0204 0
39.6857 44.8098 0
65.1453 48.3196 0
65.0293 52.3034 0
34.8086 51.6091 0
35.0079 48.5809 0
57.4848 45.505 0
54.9515 45.2729 0
52.5865 45.8641 0
50.3004 45.0414 0
47.229 44.607 0
44.3893 44.8594 0
41.9444 45.3347 0
74.3455 42.7111 0
80.2674 48.8996 0
17.9956 43.355 0
21.3085 50.8106 0
34.4409 29.7226 0
59.9861 30.2745 0
67.7909 53.6071 0
73.4042 53.0461 0
54.4621 38.7801 0
46.5081 32.9359 0
26.2307 55.4159 0
31.9774 52.6343 0
69.7622 40.0492 0
30.9795 40.4189 0
57.5942 42.1085 0
63.2453 41.2832 0
66.9022 44.7936 0
33.6432 45.0839 0
37.2344 41.6662 0
41.7186 42.4504 0
68.0487 51.1244 0
32.7531 50.1871 0
53.2258 43.011 0
49.6359 40.9358 0
74.2898 46.7027 0
25.7252 43.1656 0
71.9666 48.171 0
26.5475 48.1927 0
69.064 48.1478 0
32.1451 47.9963 0
71.0645 45.1912 0
29.6286 46.2001 0
29.8254 50.1155 0
88.155 34.4249 0
96.8871 39.0294 0
91.3009 35.7901 0
92.2295 38.6538 0
96.0832 37.8664 0
88.4971 40.8238 0
3.11301 39.0296 0
11.8703 33.1957 0
10.0031 35.0687 0
3.917 37.8666 0
8.31759 37.572 0
11.6917 37.0804 0
11.4009 22.6232 0
10.986 26.4823 0
9.37516 24.573 0
11.8635 28.9703 0
4.15493 19.9199 0
5.35355 22.4484 0
8.24066 22.8055 0
11.5352 18.4464 0
13.1455 20.3597 0
8.02121 17.6272 0
6.97201 20.3157 0
5.20323 17.229 0
6.69338 24.9038 0
7.79066 26.6958 0
4.22484 14.6087 0
9.76642 15.3633 0
87.9511 22.8962 0
90.4174 24.5778 0
88.5736 26.7489 0
91.5519 22.8105 0
95.8452 19.9198 0
94.6465 22.4483 0
87.7185 29.2862 0
[...]
    <PointData>
      <DataArray type="Float64" NumberOfComponents="2" Name="Displacement" format="ascii">
-0.00052362 -0.184855
0.000800774 -0.185313
-0.000106787 -0.184608
0.00018722 -0.184356
0.000343614 -0.184183
0.000452192 -0.184038
0.000517789 -0.183931
0.000559011 -0.183856
0.000573663 -0.183792
0.00057184 -0.183747
0.000553592 -0.18372
0.000523735 -0.183706
0.000481963 -0.183695
0.000432307 -0.183693
0.000375464 -0.1837
0.000314485 -0.183714
0.00024982 -0.183727
0.000184373 -0.183746
0.000119655 -0.18377
5.77356e-05 -0.183802
8.88925e-07 -0.183834
-4.96528e-05 -0.183874
-9.13706e-05 -0.183925
-0.000122531 -0.183988
-0.000138157 -0.184057
-0.000138884 -0.184145
-0.00011914 -0.184256
-7.70785e-05 -0.184394
1.47136e-05 -0.184545
0.000146623 -0.184748
0.000395113 -0.185029
-0.00310271 -0.184532
-0.00250321 -0.184551
-0.00190761 -0.184591
-0.00129066 -0.184686
-0.0521647 -0.233478
-0.0036856 -0.184539
-0.00427053 -0.184557
-0.00512449 -0.1846
-0.00598741 -0.184664
-0.00724152 -0.18479
-0.00851307 -0.184957
-0.0103811 -0.185269
-0.0122755 -0.185665
-0.0150478 -0.18639
-0.0178418 -0.18729
-0.0198582 -0.188049
-0.0218663 -0.188898
-0.0238549 -0.189845
-0.0258158 -0.190877
-0.0285853 -0.19252
-0.0312639 -0.194329
-0.0338236 -0.196294
-0.0273845 -0.258322
-0.0517164 -0.238102
-0.0507464 -0.24222
-0.0493841 -0.245789
-0.0477111 -0.248818
-0.0458442 -0.251348
0.0340585 -0.161568
-0.0228734 -0.257683
-0.0175103 -0.25601
-0.0112356 -0.253134
0 0
-0.0129222 -0.0117249
-0.0182717 -0.0194687
-0.0190214 -0.0257263
-0.015865 -0.0333654
-0.0115187 -0.0407672
-0.000157817 -0.175668
0 0
0 0
0 0
0 0
0.0101858 -0.170176
0.0204967 -0.150126
0.0268032 -0.108175
-0.0337157 -0.161961
0.0129723 -0.0117068
0.0183502 -0.019536
0.0191127 -0.0258317
0.0159659 -0.0335041
0.0116194 -0.0409103
0.0274588 -0.258526
0.0229467 -0.257882
0.0176153 -0.256203
0.0113213 -0.253364
0.0521314 -0.233801
0.0310371 -0.25863
0.0341254 -0.258248
0.0368769 -0.257587
0.0393429 -0.256576
0.0416496 -0.25531
0.00328932 -0.185003
0.0519708 -0.228937
0.0511235 -0.223751
0.0495114 -0.218353
0.0471038 -0.212894
0.0449537 -0.20917
0.0424244 -0.205542
0.0395189 -0.202078
0.0362785 -0.198818
0.0338516 -0.19672
0.0312994 -0.194762
0.0286287 -0.19296
0.0258674 -0.191321
0.021935 -0.189357
0.017925 -0.187739
0.0151421 -0.186849
0.0123877 -0.186133
0.0105016 -0.185738
0.00270763 -0.185029
0.0021288 -0.185073
0.00151708 -0.185168
-0.00355173 -0.179051
0.0156008 -0.178261
0.0122882 -0.171846
0.0207125 -0.139219
-0.0209337 -0.147496
-0.00325302 -0.193097
-0.00636256 -0.176236
-0.0147891 -0.21839
-0.00246373 -0.187475
-0.0429853 -0.22555
-0.0137086 -0.0249531
0.0134701 -0.0254269
-0.0225832 -0.208979
-0.00812609 -0.190495
-0.00245733 -0.197866
-0.00342371 -0.197546
0.00135546 -0.196975
-0.00453832 -0.197274
0.0036907 -0.198235
0.00203817 -0.191953
-0.00083541 -0.194721
0.000607148 -0.195483
-0.00279877 -0.191987
-0.00659539 -0.198259
-0.00936406 -0.20028
-0.00632248 -0.200954
0.00312631 -0.182535
-0.00245729 -0.182728
-0.00412777 -0.182698
0.00381632 -0.200039
0.0059408 -0.199544
-0.00700719 -0.18785
0.00669584 -0.187547
-0.00065028 -0.197097
0.00217649 -0.193786
0.0055651 -0.18953
-0.00641098 -0.189227
0.00057856 -0.196842
0.00268694 -0.182948
-0.000700506 -0.182881
-0.002787 -0.183174
-0.00391621 -0.195453
0.00560371 -0.197825
0.00594985 -0.183534
0.00579816 -0.186397
0.000916482 -0.191905
-0.00192552 -0.193136
0.00224098 -0.19432
-0.000589116 -0.193122
-0.00610631 -0.186834
-0.00602288 -0.183792
-0.00871694 -0.198124
-0.0101671 -0.203721
0.00747027 -0.180993
0.00296949 -0.181591
-0.00140918 -0.182443
-0.00666318 -0.182402
-0.0131523 -0.207431
-0.0116314 -0.208331
0.00975422 -0.205883
0.009133 -0.202719
0.0113527 -0.201735
0.0110456 -0.199944
-0.00914831 -0.180847
-0.00924363 -0.184835
0.00878419 -0.184651
0.0128689 -0.179038
-0.00599742 -0.203637
0.00102962 -0.196094
0.00768021 -0.187956
-0.000894914 -0.195944
0.00881885 -0.206666
0.00321245 -0.183203
0.00203359 -0.182916
0.000164268 -0.183023
0.000964375 -0.182932
-0.000588804 -0.183264
-0.00152706 -0.183379
-0.00097035 -0.183373
-0.00265543 -0.18349
-0.00388128 -0.193884
-0.00700491 -0.19548
0.00901995 -0.197126
0.00489389 -0.195289
0.00356233 -0.183466
0.00419901 -0.183725
0.0053354 -0.184519
0.00504613 -0.185654
0.00298617 -0.188462
0.000850277 -0.190736
-0.00103461 -0.191243
-0.00315119 -0.188978
-0.00527434 -0.186102
-0.00535964 -0.184971
-0.0039229 -0.183981
-0.00312979 -0.183712
-0.00981609 -0.19719
-0.0154695 -0.205772
0.0108659 -0.176762
-0.000769558 -0.181352
-0.00604167 -0.180493
-0.0186707 -0.214685
0.0159928 -0.21337
0.0143635 -0.204734
0.0117257 -0.197968
-0.0142979 -0.17835
0.0169481 -0.175532
-0.00991798 -0.20961
0.0102884 -0.185156
-0.0186016 -0.173187
-0.00815745 -0.18775
0.00273245 -0.200622
0.00233327 -0.183458
0.00165428 -0.18324
0.000602525 -0.183297
-0.000277088 -0.18347
-0.000948741 -0.183583
-0.00171844 -0.183769
-0.00489655 -0.193095
0.0054941 -0.193688
0.00302543 -0.184054
0.00320287 -0.185674
0.000544754 -0.189261
-0.000710641 -0.18968
-0.00309629 -0.186098
-0.00259011 -0.184357
-0.00946472 -0.192784
-0.0115559 -0.195338
-0.013224 -0.198258
-0.0180259 -0.2026
-0.0285988 -0.21665
-0.0269628 -0.220836
0.0194643 -0.15755
0.00386117 -0.177369
-0.0158844 -0.166823
-0.0245896 -0.223357
0.0233845 -0.222931
0.02311 -0.217194
0.0215348 -0.210705
0.0185963 -0.204868
0.0138213 -0.197574
0.0129825 -0.194271
-0.0195299 -0.167339
0.0221165 -0.163086
-0.0208878 -0.223244
-0.00520567 -0.206553
0.0204403 -0.169642
0.0140285 -0.217887
0.0232357 -0.228086
-0.0137204 -0.180924
0.00345913 -0.2023
0.00168187 -0.183766
0.00196966 -0.184014
0.00134322 -0.183491
0.00161847 -0.183562
0.000744946 -0.18347
0.00107745 -0.183449
3.70022e-05 -0.18358
0.000356321 -0.18353
-0.000433381 -0.183715
-0.000176727 -0.183663
-0.00100626 -0.183841
-0.000735656 -0.183748
-0.00143301 -0.184282
-0.00115335 -0.184022
-0.00155173 -0.189864
-0.0035622 -0.191092
-0.006748 -0.192293
0.00878315 -0.192059
0.00665006 -0.192268
0.00263419 -0.190983
0.00100451 -0.190222
0.00238249 -0.184482
0.00234372 -0.185139
0.0016816 -0.186606
0.000792933 -0.187686
-0.00118223 -0.1881
-0.0016957 -0.187028
-0.00213486 -0.185504
-0.00190273 -0.184778
-0.00954209 -0.188996
-0.0130152 -0.193342
-0.0204837 -0.199092
-0.0292487 -0.210311
-0.0352792 -0.224898
0.0121987 -0.102102
0.0104173 -0.167693
0.000676339 -0.177331
-0.00766512 -0.172906
-0.0143378 -0.11019
-0.0313756 -0.234254
0.0322361 -0.235345
0.0296982 -0.216549
0.0179886 -0.20009
0.0121256 -0.190816
0.00162436 -0.044997
-0.0181528 -0.128084
-0.00270197 -0.0430558
0.015669 -0.121127
-0.0184013 -0.229419
0.015679 -0.176924
0.0270824 -0.153054
0.0233635 -0.235007
-0.0262088 -0.1578
-0.00760292 -0.187959
0.00114212 -0.183989
0.000959338 -0.183695
0.000672259 -0.183627
0.000270383 -0.183677
-0.000122524 -0.18377
-0.000444733 -0.18392
-0.000660222 -0.184243
-0.00321564 -0.189086
-0.006715 -0.188907
0.00574992 -0.189357
0.00195078 -0.189051
0.00114232 -0.18488
-4.71275e-05 -0.186832
-0.00128332 -0.187016
0.00106536 -0.187712
-0.000277852 -0.187232
-0.000791873 -0.185141
-0.00604546 -0.186964
0.00607535 -0.18787
-0.0101836 -0.186554
-0.0115793 -0.188318
-0.0143153 -0.189205
-0.0163334 -0.192041
-0.0208592 -0.193697
-0.0249556 -0.198047
-0.0298935 -0.202204
-0.0355582 -0.209036
-0.0411051 -0.216008
0.00923327 -0.108153
0.00352342 -0.162835
-0.00331172 -0.166759
-0.00883263 -0.116473
-0.0428905 -0.233754
-0.0411609 -0.24041
-0.0384504 -0.2457
-0.0359007 -0.251049
-0.0282648 -0.247641
0.0299314 -0.24923
0.0360962 -0.250793
0.0391973 -0.246382
0.0414143 -0.24003
0.042914 -0.231765
0.0397531 -0.221631
0.0358743 -0.211768
0.0317317 -0.203283
0.0247438 -0.198641
0.0210713 -0.192288
0.0171468 -0.190444
0.0143645 -0.189546
0.0101238 -0.187615
0.0129187 -0.0452195
-0.000294729 -0.0818318
-0.0143397 -0.120166
-0.0130962 -0.0443053
0.0118175 -0.113033
-0.00020368 -0.0794854
-0.0195131 -0.243173
-0.00876311 -0.239021
0.0154341 -0.182443
0.0223051 -0.244885
-0.00550901 -0.197368
0.0129 -0.236894
0.000557692 -0.184312
0.000511289 -0.184564
0.000642885 -0.184057
0.000698326 -0.183856
0.000680177 -0.183945
0.000698587 -0.183748
0.000624262 -0.183698
0.000667005 -0.183719
0.000511143 -0.183688
0.000367766 -0.183702
0.00044205 -0.183694
0.000212439 -0.183735
5.52104e-05 -0.183779
0.000133563 -0.183757
-8.15171e-05 -0.183837
-0.000204506 -0.18392
-0.000146433 -0.183876
-0.000279111 -0.184036
-0.000310577 -0.184215
-0.000302198 -0.184119
-0.000253521 -0.184471
-0.000130492 -0.184881
-0.000202739 -0.184655
-0.00705407 -0.185999
-0.00832467 -0.186173
0.00828218 -0.187216
0.00702184 -0.187026
-0.00466599 -0.188419
-0.00267599 -0.186265
0.00392655 -0.188379
0.00275252 -0.188199
0.0029924 -0.186904
0.000172685 -0.185388
-9.70052e-05 -0.185873
0.000309265 -0.186466
-1.73743e-05 -0.185795
-0.004968 -0.185708
0.00517568 -0.186103
-0.00352599 -0.185623
-0.00411746 -0.185644
0.00433412 -0.186039
0.0037504 -0.186017
-0.00219141 -0.185322
-0.000976229 -0.185371
-0.00160625 -0.185338
0.00247585 -0.186047
0.00190536 -0.18604
0.00132645 -0.186042
0.00180447 -0.186812
-0.00138636 -0.185912
0.00423522 -0.186962
-0.00398138 -0.186623
-0.000810872 -0.18616
0.000885155 -0.1858
0.00370917 -0.189633
-0.0054096 -0.190172
0.00796016 -0.188847
-0.008152 -0.187319
-0.000741702 -0.18457
-0.00056008 -0.18405
-0.000293688 -0.183835
6.80733e-05 -0.183722
0.000479413 -0.183643
0.000838943 -0.18364
0.00103357 -0.18382
0.00129567 -0.184318
0.0147311 -0.225262
-0.00635835 -0.215146
-0.00119031 -0.0743539
-0.000560882 -0.0786267
0.0164525 -0.192906
0.0256191 -0.206771
0.0332082 -0.227438
0.0312151 -0.241678
-0.0274464 -0.236702
-0.0338142 -0.230334
-0.0158572 -0.150849
0.0168701 -0.141045
-0.0356298 -0.218455
-0.0240497 -0.20382
-0.0151264 -0.196032
-0.0109721 -0.190688
0.000395529 -0.188443
-0.00119894 -0.188028
-0.0234367 -0.156605
0.0242837 -0.151233
0.00249538 -0.176596
-0.00324637 -0.184924
-0.00263123 -0.187658
0.00252112 -0.187204
0.00355707 -0.184539
0.00168387 -0.19201
0.00976514 -0.195101
-0.00814879 -0.194457
-0.00193572 -0.19163
-0.00199678 -0.184008
-0.00139907 -0.183615
-0.000544042 -0.183566
6.2641e-05 -0.183374
0.00118565 -0.183227
0.00207588 -0.183303
0.00252493 -0.183729
-0.00486269 -0.191688
0.0129603 -0.213111
-0.00293534 -0.201571
-0.015207 -0.213938
0.0174677 -0.170913
-0.0118909 -0.176422
0.013761 -0.200899
0.0156632 -0.209457
-0.00357073 -0.182196
0.00407477 -0.179621
-0.0209152 -0.212766
-0.0115727 -0.199971
-0.0104817 -0.184708
0.0100358 -0.184739
-0.00423197 -0.183306
-0.00763043 -0.184426
-0.00360923 -0.190038
0.00341424 -0.189497
0.00722673 -0.184067
0.00458438 -0.183098
0.00842644 -0.198847
-0.00596761 -0.196268
-0.00148369 -0.183143
0.000381792 -0.182601
0.00312113 -0.199964
0.00412504 -0.192221
0.00455354 -0.199952
-0.00544684 -0.201391
0.00293372 -0.196528
-0.00196112 -0.194508
-0.00167312 -0.19403
0.000253533 -0.194645
-0.00731067 -0.200209
-0.0159816 -0.18394
0.00406054 -0.248489
-0.00787645 -0.216082
0.00270037 -0.226552
3.65046e-05 -0.245228
0.00550825 -0.212588
-0.00397705 -0.248309
0.0231869 -0.174075
0.0113844 -0.20325
9.38804e-05 -0.245009
0.00101631 -0.221465
0.00537313 -0.198183
0.00552746 -0.0956306
0.0133869 -0.1112
0.00724152 -0.0918655
0.021789 -0.132245
-0.00613316 -0.0498621
0.000242808 -0.0609579
0.00227278 -0.0786609
-0.00122287 -0.0778289
0.00431181 -0.0931854
-0.00734646 -0.0603291
-0.00382447 -0.0642329
-0.010557 -0.0482637
0.00722167 -0.0744639
0.0125947 -0.086853
-0.014807 -0.0386928
-0.00793952 -0.0582924
-0.00702484 -0.100515
-0.00740384 -0.0935313
-0.0145804 -0.116013
-0.00240328 -0.0801439
0.00621287 -0.0500106
-0.000205958 -0.0611524
-0.0235455 -0.137971
-0.00636105 -0.0988435
7.61755e-05 -0.0811301
0.00703159 -0.0618948
0.0105622 -0.0489076
0.00372237 -0.065481
0.0148086 -0.0391948
-0.00720073 -0.0747196
-0.0125483 -0.0871825
0.00710002 -0.0607514
-0.00549502 -0.148792
0.00436434 -0.15998
0.00495668 -0.136495
0.00215999 -0.174762
0 0
0 0
-0.00462068 -0.0699176
-0.0132702 -0.135774
-0.00986086 -0.15906
0.00594753 -0.142898
-0.00479249 -0.133092
-0.0048569 -0.157321
0.00491494 -0.0635264
0 0
-0.0264635 -0.107784
-0.00272924 -0.173756
0.0109594 -0.152168
0.0136815 -0.12603
-0.0188121 -0.172763
-0.019155 -0.173486
-0.0067148 -0.189974
-0.029233 -0.158486
0.00434813 -0.205255
-0.0203527 -0.170379
-0.024302 -0.16008
0.0246086 -0.164032
0.015739 -0.178177
0.0260365 -0.164725
0.00446446 -0.193588
0.0296118 -0.15496
0.0257304 -0.153432
0.0231841 -0.164894
0.0223925 -0.14021
0.0228224 -0.139385
0.0137395 -0.118046
0.00716451 -0.0981393
0.0211025 -0.137522
-0.0229376 -0.143687
-0.016342 -0.124833
-0.0244295 -0.144485
-0.00978189 -0.104516
-0.0222776 -0.144025
-0.00706003 -0.0794011
-0.0137867 -0.108926
-0.00770413 -0.073905
-0.0173031 -0.13179
0.0025427 -0.0250985
0.00113203 -0.0626176
-0.00828267 -0.0936848
-0.0027882 -0.176421
-0.00226356 -0.175534
-0.00679088 -0.170227
-0.000192799 -0.177263
-0.0122236 -0.16465
-0.002908 -0.176565
0.00157879 -0.176817
0.00498741 -0.174085
0.0081069 -0.165269
0.00303635 -0.173278
0.0142372 -0.156975
0.00691607 -0.173772
0.00489723 -0.0733844
0.00641694 -0.0676226
0.012713 -0.100464
-0.00301719 -0.024338
0.0165753 -0.12194
0.00591052 -0.0876604
-0.0025775 -0.0595539
-0.0195442 -0.171766
-0.0138603 -0.180134
-0.006069 -0.190257
-0.00935138 -0.186517
0.023733 -0.161016
0.0150218 -0.177857
0.00546719 -0.190581
0.00612142 -0.189692
-0.0217554 -0.165734
-0.0167109 -0.176679
-0.012123 -0.183136
-0.0147736 -0.179508
-0.0166689 -0.17609
-0.0172956 -0.173547
-0.0197179 -0.169638
-0.0136586 -0.177011
-0.0161239 -0.172667
-0.0219223 -0.161889
-0.0131437 -0.180931
0.0176811 -0.172865
0.0154256 -0.175391
0.0150034 -0.177539
0.0122513 -0.18126
0.0101615 -0.181849
0.0138368 -0.180214
-0.0107158 -0.178808
-0.0118238 -0.179854
-0.0110421 -0.181887
-0.00887828 -0.182317
-0.00896633 -0.1789
-0.00777287 -0.180618
-0.0062709 -0.18172
-0.00479346 -0.181459
0.00355329 -0.180709
0.00152708 -0.180669
0.0012195 -0.181495
-9.01539e-05 -0.182039
-0.00233749 -0.181805
0.00152914 -0.182152
0.0102223 -0.180228
0.0123388 -0.177624
0.00927131 -0.179126
0.0143538 -0.17433
0.00746185 -0.178473
0.00612407 -0.180252
0.00787655 -0.182155
0.00522383 -0.181302
0.00316915 -0.182082
0.00395678 -0.182728
0.0017907 -0.182554
0.0051558 -0.181926
0.0061517 -0.182166
0.00853994 -0.012947
0.00839079 -0.0331873
0.00653051 -0.0172724
0.00887697 -0.0487706
0 0
0 0
0.0104697 -0.0104668
0.0177831 -0.0288251
0.0142816 -0.036015
0.0160947 -0.0209665
-0.0179863 -0.102199
-0.0217562 -0.111092
-0.0161658 -0.0207754
-0.0145289 -0.0353009
-0.017785 -0.0285058
-0.00974552 -0.0466604
0.0180612 -0.101757
0.0217669 -0.110502
-0.0105361 -0.0104205
-0.00677708 -0.0169763
-0.00899761 -0.0322639
-0.00860418 -0.0128195
-0.0207069 -0.149896
-0.0104573 -0.170004
-0.0114266 -0.172757
-0.00736561 -0.174645
-0.0120096 -0.169653
-0.0018232 -0.177036
-0.0164547 -0.159719
-0.0142816 -0.172085
-0.00948664 -0.175965
-0.0193255 -0.158115
-0.0210934 -0.158524
-0.0181963 -0.166194
-0.0223967 -0.151088
-0.0189806 -0.147377
-0.0157085 -0.118436
-0.0205584 -0.137933
-0.0187481 -0.13128
0.0171415 -0.12247
0.019 -0.130504
0.0133215 -0.111029
0.0223723 -0.144233
0.0192668 -0.137752
0.0213692 -0.158849
0.0225959 -0.152151
0.0209143 -0.148751
0.0235765 -0.157297
0.0185288 -0.149691
0.0189921 -0.164661
0.0201833 -0.167122
0.0118681 -0.174186
0.00823975 -0.175379
0.00771139 -0.176923
0.00748621 -0.174616
0.00327157 -0.17674
0.0040676 -0.178305
0.0153863 -0.170727
0.0155014 -0.161992
0.0118514 -0.169582
0.0163822 -0.165994
0.0198872 -0.170794
0.018017 -0.174323
0.0219501 -0.165673
0.0110826 -0.18373
0.019856 -0.17011
0.0166599 -0.176582
0.0127446 -0.182036
-0.002041 -0.180338
-0.00494701 -0.179797
-0.00333126 -0.181072
-0.00785763 -0.178181
0.000445364 -0.179584
-0.00128587 -0.177649
-0.00503026 -0.177601
3.71676e-05 -0.17844
0.00250156 -0.231747
-0.00415647 -0.231166
-0.00299042 -0.239531
-0.00335763 -0.217207
-0.00822522 -0.227094
-0.00656334 -0.243714
0.00434818 -0.240904
0.00900894 -0.23578
0.00650991 -0.22484
0.00784088 -0.199726
0.00268659 -0.209811
0.00580073 -0.213318
-0.000983824 -0.207457
0.0123321 -0.217456
0.0129098 -0.192314
0.0100451 -0.190922
0.0272989 -0.143396
0.0255909 -0.121049
0.0227292 -0.128624
0.0160294 -0.122379
0.0192947 -0.1174
0.0288436 -0.135749
-0.0255517 -0.121721
-0.0284861 -0.147304
-0.0234392 -0.132264
-0.0199869 -0.120815
-0.0181087 -0.128793
-0.0283927 -0.136388
-0.0246448 -0.16627
-0.0249921 -0.168459
-0.0179423 -0.176742
-0.0315742 -0.159053
-0.023821 -0.174239
-0.0104117 -0.191165
-0.0123396 -0.184368
-0.0245996 -0.164495
-0.027553 -0.157864
-0.000253021 -0.201018
0.00499514 -0.208183
-0.000797822 -0.198133
0.0103747 -0.219386
0.00989095 -0.215266
-0.00167105 -0.196051
-0.0072813 -0.188474
-0.00610673 -0.192503
0.000395034 -0.205586
-0.0198937 -0.17114
-0.0225633 -0.165547
-0.0226903 -0.166093
-0.0228099 -0.163454
-0.0239602 -0.157968
-0.025164 -0.158837
-0.0232768 -0.165618
-0.0132231 -0.180505
-0.0161872 -0.176666
0.00966414 -0.186372
0.00482539 -0.195104
0.0104019 -0.187568
-0.00135132 -0.204379
0.0156649 -0.179652
0.0157973 -0.177168
0.0102401 -0.184607
0.0252286 -0.167742
0.0296981 -0.161795
0.0287719 -0.15996
0.0284898 -0.168148
0.0321278 -0.156784
0.0282464 -0.153807
0.0279602 -0.158295
0.0214527 -0.17225
0.0191387 -0.178571
0.0261033 -0.158439
0.0251505 -0.159394
0.0238478 -0.164361
0.0249414 -0.152101
0.0247582 -0.157896
0.0203107 -0.170249
0.0203646 -0.170547
0.0268344 -0.158708
0.026348 -0.153146
0.0264865 -0.146954
0.0270491 -0.145915
0.0224113 -0.137173
0.0170369 -0.126106
0.0257904 -0.146994
0.0249808 -0.146522
0.0247113 -0.147204
0.0238923 -0.146221
0.0186457 -0.130342
-0.0242589 -0.142672
-0.0286771 -0.150477
-0.0274158 -0.151107
-0.0263727 -0.151815
-0.0194287 -0.132754
-0.0252002 -0.150595
-0.0247549 -0.152419
-0.0203302 -0.135686
-0.0238107 -0.150616
-0.0110568 -0.183607
-0.00685676 -0.189099
-0.0099539 -0.185344
-0.010293 -0.185177
-0.00550161 -0.191048
-0.0138682 -0.180466
0.00503795 -0.191595
8.76095e-06 -0.198417
-0.000713126 -0.20053
0.00103994 -0.196415
-0.00401051 -0.203651
-0.00590868 -0.21005
0.0103175 -0.184052
0.0105065 -0.183943
0.00585553 -0.189963
0.0105343 -0.183743
0.00158001 -0.195539
0.0153795 -0.177267
0.018332 -0.173258
0.0129574 -0.180981
0.0034898 -0.193092
0.00881342 -0.186404
0.0137746 -0.180556
0.016214 -0.176767
-0.000817491 -0.19851
0.00615782 -0.189884
0.00749063 -0.188434
0.00276016 -0.193954
-0.00146471 -0.195902
0.00300834 -0.201332
-0.00157856 -0.195689
0.00836514 -0.208142
0.00786907 -0.206775
-0.00126112 -0.195872
-0.00180318 -0.195539
0.00472466 -0.21846
0.00815714 -0.232063
0.00974345 -0.225294
0.00352436 -0.238796
0.00910548 -0.242422
0.0142246 -0.230416
-0.000747762 -0.212603
-0.00604679 -0.230338
-0.000370983 -0.233865
-0.00217134 -0.221619
-0.00430032 -0.241046
-0.00587596 -0.205354
-0.0105948 -0.223011
-0.00884713 -0.236049
-0.0182044 -0.194643
-0.0148061 -0.21306
-0.0112118 -0.201062
-0.0137558 -0.229571
-0.0192387 -0.221533
0.0179127 -0.241158
0.0155154 -0.248071
0.0203503 -0.250605
-0.0253127 -0.210765
-0.0294753 -0.193552
0.0251969 -0.252949
0.0189492 -0.235791
0.0223617 -0.19245
0.0163378 -0.190698
0.0166457 -0.205906
0.0137815 -0.229386
0.0192405 -0.221383
-0.0146877 -0.241002
-0.0187864 -0.249992
-0.0134421 -0.248997
-0.0238819 -0.252379
0.024851 -0.210771
0.0301228 -0.193795
-0.0137187 -0.231143
0.0282436 -0.200966
0.0314572 -0.199149
0.0279473 -0.196877
0.0339462 -0.201177
0.00864517 -0.185426
0.00738319 -0.185262
0.02524 -0.195131
0.0251031 -0.202826
0.0285802 -0.205231
0.0338004 -0.207575
0.0390183 -0.208905
0.0370801 -0.204536
0.04148 -0.212549
0.00614271 -0.185139
0.00529016 -0.185074
0.0307726 -0.20937
0.0413719 -0.226827
0.0467218 -0.228163
0.0454665 -0.222986
0.0475702 -0.233071
0.0044462 -0.185029
0.00386709 -0.18501
0.043181 -0.217655
0.0362069 -0.224898
0.0381083 -0.229908
0.042064 -0.236039
0.0461286 -0.24169
0.0472088 -0.237635
0.0449362 -0.245139