<?xml version="1.0"?>
<VTKFile type="UnstructuredGrid">
  <UnstructuredGrid>
  <Piece NumberOfPoints="3487"  NumberOfCells="1698">
    <Points>
      <DataArray type="Float64" NumberOfComponents="3" format="ascii">
39.9733 48.6926 0
60.0271 48.6919 0
40.6342 48.8235 0
41.2965 48.9455 0
41.9602 49.0584 0
42.6253 49.1624 0
43.2916 49.2573 0
43.9591 49.3432 0
44.6277 49.4201 0
45.2972 49.488 0
45.9676 49.5469 0
46.6386 49.5966 0
47.3103 49.6374 0
47.9824 49.6691 0
48.6549 49.6917 0
49.3276 49.7053 0
50.0004 49.7098 0
50.6732 49.7052 0
51.3459 49.6916 0
52.0184 49.6689 0
52.6905 49.6372 0
53.3621 49.5964 0
54.0332 49.5465 0
54.7035 49.4876 0
55.373 49.4197 0
56.0415 49.3428 0
56.709 49.2568 0
57.3753 49.1618 0
58.0404 49.0578 0
58.704 48.9448 0
59.3663 48.8228 0
39.9949 49.7086 0
39.9943 49.4546 0
39.9904 49.2006 0
39.9833 48.9466 0
19.9169 69.6309 0
39.9923 49.9703 0
39.9862 50.2319 0
39.9714 50.6103 0
39.9493 50.9883 0
39.9048 51.5344 0
39.8452 52.0791 0
39.7327 52.8641 0
39.589 53.6439 0
39.3265 54.7609 0
39.0002 55.8612 0
38.725 56.6445 0
38.4175 57.4159 0
38.0781 58.1738 0
37.7076 58.917 0
37.1175 59.9638 0
36.4655 60.9732 0
35.7541 61.9417 0
-0.043312 49.5909 0
17.307 69.4524 0
14.7427 68.9354 0
12.2677 68.0888 0
9.92397 66.9268 0
7.75178 65.4694 0
11.551 31.6422 0
0.163678 46.7722 0
0.767541 44.0116 0
1.75648 41.3643 0
0 0 0
0.118871 3.71079 0
0.527488 7.40712 0
1.21884 11.0644 0
2.18793 14.6574 0
3.0952 17.3031 0
49.9998 -0.277874 0
5.1116 0 0
10.2232 0 0
15.3348 0 0
100 0 0
57.4045 -0.269208 0
64.8093 -0.237564 0
72.2078 -0.171228 0
88.4496 31.6416 0
99.8812 3.71079 0
99.4726 7.40696 0
98.7813 11.0642 0
97.8122 14.6572 0
96.905 17.3028 0
100.043 49.5906 0
99.8364 46.7719 0
99.2326 44.0113 0
98.2437 41.3639 0
80.0831 69.6304 0
99.8781 52.201 0
99.3727 54.7674 0
98.5362 57.2458 0
97.3831 59.5938 0
95.9334 61.771 0
60.0054 49.7079 0
77.5721 69.4799 0
75.0997 69.016 0
72.705 68.246 0
70.4256 67.1819 0
68.937 66.2834 0
67.5319 65.2592 0
66.221 64.1168 0
65.0142 62.8651 0
64.2459 61.941 0
63.5345 60.9726 0
62.8826 59.9631 0
62.2925 58.9163 0
61.5827 57.4153 0
61 55.8605 0
60.6737 54.7603 0
60.4112 53.6432 0
60.2675 52.8634 0
60.006 49.4539 0
60.0099 49.1999 0
60.017 48.9459 0
52.8167 29.9661 0
26.5391 36.7894 0
40.3409 24.0963 0
24.95 22.3861 0
71.9204 22.408 0
72.7031 43.8388 0
54.7989 23.9176 0
15.2918 47.2855 0
38.3588 49.3195 0
23.5697 65.1098 0
7.68705 7.72536 0
91.9544 7.70345 0
29.1479 56.7657 0
37.1777 51.7895 0
28.0867 47.0817 0
29.725 48.0431 0
71.5163 46.5668 0
30.9826 48.9416 0
70.5175 48.0444 0
31.6372 45.5308 0
30.8863 46.9851 0
70.0646 46.5559 0
68.9816 44.8811 0
31.2853 50.0363 0
30.8958 51.2586 0
28.1827 49.0374 0
45.3098 41.1685 0
53.8426 40.7896 0
56.0255 40.3385 0
73.1305 47.3206 0
70.1193 49.2845 0
68.3281 42.3119 0
32.3152 42.6422 0
26.1359 45.5644 0
27.6781 44.57 0
30.3077 43.1997 0
70.4093 42.5105 0
72.6774 45.8328 0
44.8503 42.9608 0
51.4303 41.8674 0
55.4085 42.4536 0
32.4467 48.9783 0
68.5597 49.5212 0
39.48 41.952 0
35.4426 43.2674 0
32.8948 46.429 0
33.5753 48.1766 0
67.106 48.121 0
67.9826 46.3588 0
65.0697 42.9305 0
60.4162 41.5894 0
32.3601 51.2958 0
28.2079 50.8951 0
41.7818 37.1752 0
46.8248 37.5795 0
52.0484 39.7522 0
58.675 39.1218 0
26.5946 51.7905 0
24.2905 50.2242 0
74.2352 49.8319 0
71.173 50.535 0
69.1519 52.1156 0
67.9264 52.2497 0
59.7581 36.2423 0
66.4982 40.5587 0
34.1122 40.9352 0
36.0317 35.6746 0
23.1786 47.0563 0
21.6466 43.1629 0
28.3574 41.6837 0
74.3171 44.593 0
76.6439 48.4384 0
43.0557 43.5487 0
46.2696 42.8346 0
49.9681 42.8825 0
48.4332 42.6653 0
51.7629 43.9199 0
54.0877 44.0356 0
52.9057 44.3312 0
56.2715 43.5843 0
33.8782 49.2717 0
33.7766 50.7847 0
66.5444 51.5995 0
66.5998 49.6089 0
41.8335 43.7862 0
40.7047 43.5237 0
38.4631 43.1308 0
37.1446 43.7357 0
35.3476 45.4428 0
34.3261 46.7217 0
66.0231 46.4455 0
65.0172 45.1727 0
63.1874 43.4193 0
61.7018 42.9703 0
58.8768 43.384 0
57.5377 43.7002 0
33.3871 52.0074 0
29.1538 53.615 0
40.8396 30.8996 0
50.8849 35.8936 0
55.6646 34.1761 0
23.5452 53.3346 0
76.9312 51.8038 0
70.2501 53.2219 0
66.4171 52.8405 0
65.4654 35.0595 0
30.9616 34.4787 0
19.4385 47.1756 0
26.134 39.9218 0
71.9928 34.0005 0
72.0486 41.2716 0
77.4872 45.1947 0
43.1682 44.9908 0
45.8101 44.627 0
48.765 44.7179 0
51.4433 45.3464 0
53.7685 45.4621 0
56.2171 45.2825 0
34.9054 49.9831 0
65.0904 50.1991 0
40.8167 44.9657 0
38.3691 45.3077 0
36.0287 47.1911 0
64.1399 46.9357 0
61.6481 45.2141 0
58.8231 45.0819 0
36.0598 52.2576 0
34.9071 53.0197 0
33.4906 53.5304 0
31.8865 55.3209 0
26.0699 58.7839 0
22.9746 57.1865 0
32.4089 22.6116 0
47.0391 26.5854 0
63.1287 22.9511 0
19.9692 54.8946 0
80.2079 54.1601 0
75.82 55.6704 0
71.956 56.0253 0
69.1068 55.3483 0
65.7862 53.8494 0
64.1096 53.6951 0
68.1417 28.9061 0
26.79 29.997 0
17.2216 51.6262 0
14.5959 42.3328 0
22.415 33.9717 0
84.9067 46.7473 0
84.7397 51.896 0
75.1613 37.835 0
81.2162 43.8301 0
42.4573 46.3213 0
41.4169 46.1296 0
44.9661 46.1668 0
43.6799 46.0837 0
47.7366 46.108 0
46.386 46.0406 0
50.62 46.4212 0
49.2722 46.3252 0
53.0505 46.8163 0
51.7631 46.8326 0
55.5127 46.4286 0
54.2329 46.5207 0
58.0609 46.3823 0
56.7795 46.5446 0
36.3717 48.5133 0
36.0233 49.5145 0
35.9217 51.0281 0
63.3932 51.9621 0
63.835 50.9491 0
63.8906 48.9577 0
63.8383 48.0552 0
40.2877 45.8668 0
39.3719 46.0461 0
38.0528 46.6505 0
37.3935 47.2343 0
62.8322 46.7822 0
62.0161 46.458 0
60.53 46.0096 0
59.4005 46.0656 0
38.0511 52.4606 0
36.163 53.7813 0
34.0547 56.64 0
29.5708 59.7037 0
22.8404 61.244 0
21.7472 15.3564 0
39.9721 16.1246 0
48.9015 11.4023 0
56.9378 16.8523 0
76.6348 15.5896 0
15.6063 56.9368 0
84.5532 57.3715 0
73.4394 59.3655 0
66.5374 55.5085 0
62.4678 53.4675 0
82.9408 7.81294 0
79.7294 22.5375 0
16.3068 7.89551 0
18.3592 22.2568 0
10.703 46.6409 0
16.5913 35.9055 0
15.5419 30.321 0
89.4278 49.5141 0
83.2916 31.1623 0
81.5705 39.195 0
41.9284 47.2227 0
44.2557 47.4974 0
46.8929 47.6479 0
49.5917 47.8114 0
52.2273 47.8912 0
54.7949 47.7829 0
57.3566 47.5286 0
37.3883 49.5584 0
37.9132 51.2305 0
62.1931 50.7207 0
62.5826 48.8048 0
39.9719 47.2104 0
38.3964 47.9733 0
38.5105 48.7432 0
61.7661 48.4413 0
61.714 47.5781 0
59.7681 47.3104 0
38.8835 50.9922 0
61.3536 50.9261 0
39.1878 52.7728 0
38.4523 53.3314 0
38.158 54.4399 0
37.0055 55.2016 0
36.4978 56.9739 0
34.8465 58.4936 0
33.3354 60.3482 0
30.7147 62.4539 0
27.9504 64.6008 0
27.176 7.7684 0
38.6587 8.26337 0
59.8742 8.48558 0
71.7603 7.8443 0
19.1954 64.5492 0
14.9002 62.8109 0
10.7029 60.0194 0
6.25756 56.9721 0
5.97264 51.0417 0
94.2623 52.1378 0
93.3519 57.191 0
89.3701 60.5385 0
84.6196 63.0549 0
79.5136 64.7322 0
74.6125 63.7721 0
70.3016 62.4973 0
66.8615 61.0494 0
65.2416 58.3805 0
62.7384 57.0582 0
62.0922 55.5304 0
61.7978 54.4219 0
61.0812 52.6885 0
93.5003 14.5215 0
89.794 20.6739 0
86.0985 25.0002 0
6.24598 14.515 0
13.0191 24.4688 0
9.79057 20.6646 0
5.74235 45.4769 0
5.64614 40.5365 0
12.3146 34.6321 0
94.2492 47.0219 0
88.1152 36.9708 0
93.3704 42.2986 0
41.0919 47.9882 0
40.4308 47.8618 0
42.1329 48.1799 0
43.464 48.3787 0
42.7971 48.2883 0
44.7506 48.4618 0
46.0903 48.5885 0
45.4196 48.5342 0
47.4412 48.656 0
48.7856 48.7103 0
48.113 48.6922 0
50.1337 48.8063 0
51.4791 48.7882 0
50.8065 48.8063 0
52.7667 48.7719 0
54.1092 48.6813 0
53.4385 48.7356 0
55.3893 48.5892 0
56.7251 48.4263 0
56.0583 48.5168 0
58.007 48.264 0
59.3324 48.0291 0
58.6713 48.1555 0
39.3679 51.445 0
39.3159 51.9904 0
60.9532 51.9061 0
60.9011 51.3608 0
38.0101 50.3211 0
39.1324 49.5061 0
61.7954 49.9127 0
61.8186 49.3442 0
60.9789 49.5494 0
39.5145 48.0409 0
39.1703 48.1594 0
60.9497 48.1173 0
60.4625 47.9728 0
39.4649 50.5353 0
60.5034 50.5527 0
39.4877 49.8955 0
39.4834 50.1571 0
60.485 50.1745 0
60.4806 49.9129 0
39.6397 49.3189 0
39.6288 48.8111 0
39.6374 49.065 0
60.5036 49.3441 0
60.5059 49.0902 0
60.5146 48.8364 0
61.002 48.9808 0
39.2843 48.9296 0
60.9559 50.118 0
38.9805 50.0826 0
60.8979 47.2538 0
39.0558 47.3893 0
62.6351 49.7076 0
37.0397 50.5597 0
61.7514 51.7341 0
38.7864 51.9018 0
58.6383 47.3662 0
56.0749 47.6908 0
53.5149 47.8749 0
50.9397 47.9075 0
48.2437 47.7153 0
45.5421 47.5804 0
42.9692 47.4143 0
40.8878 47.0309 0
89.1659 44.6733 0
10.9194 40.8068 0
13.2805 16.1408 0
85.8805 16.3468 0
63.1845 55.2007 0
68.9404 58.3618 0
78.9732 59.7477 0
89.3182 54.7935 0
11.7464 52.744 0
19.2044 59.573 0
66.703 15.682 0
30.7689 15.407 0
26.3256 62.0207 0
32.1405 57.8782 0
35.0104 54.5432 0
37.3156 53.0194 0
62.5304 47.9021 0
37.7367 48.5569 0
75.9281 28.605 0
20.526 28.5161 0
47.9162 19.2047 0
60.1624 44.7652 0
63.1343 45.6625 0
37.05 45.9119 0
39.6877 44.7029 0
65.1463 48.2084 0
65.0352 52.1903 0
34.8036 51.4964 0
35.0066 48.4698 0
57.4837 45.3983 0
54.9507 45.1665 0
52.5862 45.7577 0
50.3004 44.9351 0
47.2297 44.5008 0
44.3905 44.7532 0
41.9458 45.2282 0
74.3426 42.5998 0
80.275 48.7757 0
17.994 43.2377 0
21.2995 50.6863 0
34.4512 29.6233 0
59.9791 30.1721 0
67.7992 53.4906 0
73.4136 52.9245 0
54.46 38.6745 0
46.5105 32.8317 0
26.2182 55.2924 0
31.9705 52.5184 0
69.756 39.942 0
30.9854 40.3117 0
57.5917 42.0023 0
63.2409 41.1763 0
66.9001 44.6834 0
33.6451 44.9741 0
37.2386 41.5595 0
41.7213 42.3443 0
68.0538 51.0091 0
32.7495 50.0733 0
53.225 42.9048 0
49.6361 40.83 0
74.2917 46.5866 0
25.7276 43.054 0
71.9693 48.0549 0
26.5442 48.0758 0
69.0658 48.0338 0
32.1439 47.8835 0
71.0635 45.0786 0
29.6287 46.0871 0
29.8209 49.9994 0
88.1453 34.3177 0
96.8891 38.8844 0
91.2959 35.664 0
92.2307 38.5216 0
96.0828 37.7233 0
88.5001 40.6999 0
3.11105 38.8846 0
11.8843 33.0942 0
10.0101 34.95 0
3.91745 37.7236 0
8.31852 37.4428 0
11.6951 36.9648 0
11.4044 22.5677 0
10.9942 26.4179 0
9.37976 24.5198 0
11.8766 28.8935 0
4.15171 19.8912 0
5.3541 22.4133 0
8.24234 22.76 0
11.5347 18.4013 0
13.1482 20.3056 0
8.01718 17.5923 0
6.97011 20.2786 0
5.19735 17.2012 0
6.69804 24.8608 0
7.79849 26.6456 0
4.21644 14.5864 0
9.76198 15.3295 0
87.9467 22.8379 0
90.4127 24.5237 0
88.5647 26.6816 0
91.5501 22.7642 0
95.8484 19.891 0
94.646 22.413 0
87.7043 29.206 0
[...]
    <PointData>
      <DataArray type="Float64" NumberOfComponents="2" Name="Displacement" format="ascii">
-0.00090409 -0.291905
0.00134729 -0.292627
-0.000220217 -0.291548
0.000259726 -0.291168
0.00051415 -0.290906
0.000690748 -0.290686
0.000798392 -0.290523
0.000866818 -0.29041
0.000892773 -0.290314
0.000892316 -0.290246
0.000865721 -0.290205
0.00082057 -0.290186
0.000756457 -0.290171
0.000679757 -0.290169
0.000591636 -0.29018
0.000496931 -0.290202
0.000396373 -0.290223
0.000294585 -0.290252
0.000193976 -0.290291
9.78531e-05 -0.29034
9.82038e-06 -0.290389
-6.81087e-05 -0.290451
-0.000131979 -0.290529
-0.000178935 -0.290626
-0.000201094 -0.290731
-0.000199304 -0.290866
-0.000164981 -0.291036
-9.47953e-05 -0.291247
5.59569e-05 -0.291477
0.000272047 -0.291786
0.00067835 -0.292212
-0.00505213 -0.291351
-0.0040899 -0.291387
-0.0031336 -0.291458
-0.00214197 -0.29162
-0.0831439 -0.369125
-0.00598542 -0.291356
-0.00692139 -0.291382
-0.0082871 -0.291444
-0.00966628 -0.291541
-0.0116688 -0.291737
-0.0136978 -0.291996
-0.0166767 -0.292486
-0.0196955 -0.293111
-0.0241112 -0.294258
-0.0285589 -0.295685
-0.0317676 -0.296888
-0.034962 -0.298237
-0.0381249 -0.299739
-0.0412431 -0.301378
-0.0456464 -0.303987
-0.0499043 -0.306858
-0.0539729 -0.30998
-0.043312 -0.409098
-0.0824325 -0.376507
-0.0808869 -0.383091
-0.0787109 -0.388809
-0.0760331 -0.393673
-0.0730376 -0.397746
0.0546119 -0.255643
-0.036082 -0.408095
-0.0275081 -0.405447
-0.0174968 -0.400888
0 0
-0.020398 -0.0184905
-0.0288127 -0.0306624
-0.0299349 -0.0404847
-0.024866 -0.0525076
-0.0179288 -0.0641845
-0.000246607 -0.277874
0 0
0 0
0 0
0 0
0.0161484 -0.269208
0.0325078 -0.237564
0.0426364 -0.171228
-0.0540476 -0.256269
0.0204783 -0.0184626
0.0289385 -0.0307699
0.0300814 -0.0406523
0.0250284 -0.0527279
0.0180913 -0.0644114
0.0434342 -0.409419
0.0362029 -0.408409
0.0276786 -0.405752
0.0176373 -0.401251
0.0830963 -0.369634
0.0491828 -0.409565
0.0541554 -0.408934
0.0585918 -0.407851
0.0625716 -0.406204
0.0662919 -0.404144
0.00535092 -0.292093
0.082837 -0.36188
0.081485 -0.353621
0.0789179 -0.345032
0.0750874 -0.336351
0.0716684 -0.330432
0.0676474 -0.324667
0.0630293 -0.319163
0.057879 -0.313985
0.0540218 -0.310652
0.049965 -0.307543
0.0457196 -0.304679
0.041329 -0.302078
0.0350751 -0.29896
0.0286948 -0.296393
0.0242646 -0.294982
0.0198776 -0.29385
0.0168714 -0.293226
0.00441736 -0.292141
0.00348793 -0.29222
0.00250388 -0.292382
-0.00563192 -0.283012
0.0248356 -0.281794
0.0194931 -0.271761
0.0329497 -0.22032
-0.0332647 -0.233396
-0.00513982 -0.305167
-0.010085 -0.278673
-0.0234356 -0.345479
-0.00401818 -0.296053
-0.0685143 -0.356494
-0.0216354 -0.0393663
0.0212619 -0.0401184
-0.0360483 -0.33018
-0.013061 -0.300823
-0.00396509 -0.312675
-0.00551766 -0.312131
0.0022147 -0.311258
-0.00730278 -0.311671
0.00594432 -0.313222
0.00317824 -0.303268
-0.00139888 -0.307647
0.00103194 -0.308872
-0.00439116 -0.303337
-0.0105844 -0.313217
-0.0149958 -0.316414
-0.0101264 -0.317546
0.00493888 -0.288354
-0.00387964 -0.288663
-0.0065238 -0.288616
0.00612348 -0.316134
0.00953404 -0.315279
-0.0110966 -0.296809
0.0106002 -0.296318
-0.00106818 -0.311508
0.00342364 -0.306247
0.00880725 -0.299479
-0.0101572 -0.299018
0.000967229 -0.311077
0.0042344 -0.288991
-0.00110254 -0.2889
-0.00439111 -0.289351
-0.00631917 -0.308765
0.00900689 -0.312529
0.00940432 -0.289917
0.00916071 -0.294452
0.00138481 -0.303164
-0.00314951 -0.305087
0.0036521 -0.30697
-0.000864027 -0.305102
-0.0096504 -0.295152
-0.00951946 -0.290328
-0.013974 -0.312976
-0.0162545 -0.321912
0.0118426 -0.285968
0.00470394 -0.286904
-0.00222617 -0.288224
-0.0105494 -0.288164
-0.0209972 -0.327809
-0.0185483 -0.329294
0.0155762 -0.325388
0.0146145 -0.320314
0.0181685 -0.318709
0.0176878 -0.315852
-0.014508 -0.285756
-0.0146551 -0.29204
0.013924 -0.291739
0.0204346 -0.282934
-0.00955679 -0.321913
0.00165852 -0.31004
0.0121914 -0.297038
-0.00139579 -0.309698
0.0140581 -0.326691
0.00505749 -0.289383
0.00320572 -0.288946
0.000261362 -0.28912
0.00152187 -0.288976
-0.000922264 -0.289495
-0.00239616 -0.289669
-0.0015203 -0.289663
-0.00417435 -0.289837
-0.00627009 -0.306257
-0.0112522 -0.308773
0.0144667 -0.311375
0.00788551 -0.308483
0.00560668 -0.289789
0.00661589 -0.290198
0.00842211 -0.29146
0.00796036 -0.293254
0.00467829 -0.297692
0.00127492 -0.30129
-0.00156755 -0.302098
-0.00493987 -0.298514
-0.00832226 -0.293967
-0.0084588 -0.292175
-0.0061765 -0.290603
-0.00492048 -0.29018
-0.0157333 -0.311476
-0.0247137 -0.325122
0.0172488 -0.2794
-0.00121809 -0.286548
-0.00958032 -0.28522
-0.0297589 -0.339348
0.0254882 -0.337286
0.0229592 -0.323468
0.0187823 -0.312696
-0.02271 -0.28187
0.0269522 -0.277463
-0.0157503 -0.331463
0.0163674 -0.292665
-0.0296061 -0.273798
-0.0129525 -0.296722
0.00434938 -0.317168
0.00365829 -0.289776
0.00259876 -0.289449
0.000949025 -0.289545
-0.000429836 -0.289817
-0.00148051 -0.289988
-0.00268432 -0.290269
-0.00789404 -0.304988
0.00884978 -0.305922
0.00474509 -0.2907
0.00502234 -0.293255
0.000785108 -0.29893
-0.00104799 -0.299595
-0.00485104 -0.293926
-0.00405233 -0.291179
-0.0151898 -0.304458
-0.0185174 -0.308513
-0.0211673 -0.313155
-0.0288083 -0.320042
-0.0456073 -0.342373
-0.0429712 -0.349072
0.030902 -0.249257
0.00612662 -0.280416
-0.0251978 -0.263867
-0.03915 -0.353148
0.0372292 -0.352481
0.0368463 -0.343287
0.0343727 -0.332934
0.0297135 -0.323647
0.0221274 -0.312055
0.0208016 -0.3068
-0.031048 -0.264614
0.0352207 -0.257921
-0.0332006 -0.353066
-0.00815193 -0.326816
0.0326042 -0.268255
0.0222226 -0.344692
0.0369156 -0.360778
-0.0218505 -0.286014
0.00545385 -0.319934
0.00261815 -0.290252
0.00306728 -0.290633
0.00210011 -0.289838
0.00252709 -0.289941
0.00116897 -0.289815
0.00168792 -0.289778
6.29096e-05 -0.28999
0.000561711 -0.289912
-0.00066944 -0.290198
-0.000269912 -0.290119
-0.00156072 -0.290387
-0.00114076 -0.290247
-0.00221705 -0.29106
-0.0017843 -0.290662
-0.00255961 -0.299866
-0.00576846 -0.301806
-0.0108537 -0.303695
0.0141083 -0.303303
0.0107006 -0.303651
0.00428878 -0.301635
0.00168772 -0.300438
0.00371834 -0.291364
0.00365432 -0.292396
0.00259831 -0.294713
0.00118118 -0.296421
-0.00180013 -0.297081
-0.00261926 -0.295382
-0.00332041 -0.292972
-0.00295445 -0.291831
-0.0153269 -0.298426
-0.0208524 -0.305328
-0.0327378 -0.314446
-0.0466669 -0.332269
-0.0562282 -0.355486
0.0193959 -0.161654
0.0164774 -0.265307
0.00106657 -0.280514
-0.0121225 -0.273514
-0.0227656 -0.174468
-0.0499203 -0.370494
0.0512974 -0.372219
0.0473667 -0.342198
0.0287632 -0.31604
0.0194463 -0.301305
0.00251752 -0.0712086
-0.028936 -0.202688
-0.00422028 -0.0681207
0.0250128 -0.191652
-0.0290911 -0.363078
0.0250785 -0.279852
0.043321 -0.242127
0.037022 -0.37189
-0.0419059 -0.249617
-0.0121726 -0.297266
0.00175821 -0.290596
0.00148994 -0.290155
0.00105128 -0.29006
0.000427456 -0.290143
-0.000183231 -0.290288
-0.000679977 -0.290516
-0.00100047 -0.291006
-0.00521839 -0.298612
-0.0108129 -0.298302
0.0092719 -0.29902
0.00319864 -0.298562
0.00174272 -0.291973
-0.000156545 -0.29505
-0.00212971 -0.295331
0.00178311 -0.296438
-0.000360336 -0.295687
-0.00118532 -0.292385
-0.00975028 -0.29521
0.00979765 -0.296648
-0.0163581 -0.294534
-0.0185788 -0.297338
-0.0229376 -0.298739
-0.0261456 -0.303244
-0.0333498 -0.305864
-0.0398618 -0.312773
-0.0477127 -0.319371
-0.0567159 -0.330225
-0.0655343 -0.341307
0.0145418 -0.171331
0.00549524 -0.257679
-0.00516762 -0.263865
-0.0138896 -0.184484
-0.068345 -0.369578
-0.0655563 -0.380226
-0.0611809 -0.388728
-0.0570433 -0.397343
-0.0447798 -0.392001
0.0474537 -0.394511
0.0573657 -0.396923
0.0623823 -0.389804
0.0659696 -0.379609
0.0683934 -0.366396
0.0633769 -0.350253
0.0572195 -0.334563
0.0506411 -0.321078
0.0395282 -0.313712
0.0336951 -0.30362
0.0274499 -0.300696
0.0230193 -0.299274
0.0162635 -0.296217
0.0202462 -0.071321
-0.00074123 -0.129235
-0.0229817 -0.190001
-0.0205223 -0.069871
0.0189933 -0.178672
-3.75294e-05 -0.12551
-0.0307611 -0.384995
-0.01359 -0.37849
0.0247558 -0.288782
0.0352313 -0.387685
-0.00896969 -0.312441
0.0202134 -0.375078
0.000826061 -0.291091
0.000741859 -0.291471
0.000976088 -0.290708
0.00107654 -0.290406
0.00104221 -0.290539
0.00108504 -0.290243
0.000974194 -0.29017
0.00103866 -0.290201
0.000800787 -0.290158
0.000578879 -0.290183
0.000693999 -0.290169
0.000337811 -0.290236
9.36797e-05 -0.290303
0.000215308 -0.290269
-0.000117986 -0.290393
-0.000306962 -0.290521
-0.000218018 -0.290453
-0.000418567 -0.290697
-0.000459211 -0.290971
-0.000450942 -0.290824
-0.000355752 -0.291359
-0.000138934 -0.291976
-0.000266213 -0.291636
-0.0113655 -0.293666
-0.0133935 -0.293936
0.0133258 -0.295592
0.0113137 -0.295297
-0.00753917 -0.29754
-0.00435986 -0.294124
0.00635875 -0.297477
0.00448021 -0.2972
0.00486649 -0.295134
0.0001987 -0.292757
-0.000232885 -0.293524
0.00057277 -0.294461
4.94564e-05 -0.2934
-0.00803253 -0.293214
0.0083662 -0.293836
-0.00572497 -0.293092
-0.00667209 -0.29312
0.00701991 -0.293741
0.00608502 -0.293711
-0.0035857 -0.292625
-0.00163283 -0.292717
-0.00264618 -0.292657
0.00404058 -0.293772
0.00312445 -0.293768
0.0021941 -0.293778
0.00296268 -0.294998
-0.00229264 -0.293573
0.00685736 -0.295215
-0.00644989 -0.294684
-0.0012114 -0.293991
0.00133099 -0.29342
0.00600833 -0.299476
-0.00872238 -0.300326
0.0128058 -0.298192
-0.0131139 -0.295764
-0.00111529 -0.291503
-0.000853839 -0.290713
-0.000448169 -0.290387
0.00011291 -0.290215
0.000752462 -0.290089
0.00130791 -0.290075
0.00159694 -0.290342
0.00199191 -0.291099
0.0232397 -0.356521
-0.00988831 -0.340568
-0.00171503 -0.117542
-0.00104874 -0.124325
0.0263376 -0.304614
0.0409007 -0.326641
0.0529148 -0.359552
0.0495899 -0.382394
-0.0435723 -0.374508
-0.0538591 -0.364182
-0.0250962 -0.238747
0.0267133 -0.223271
-0.0568094 -0.345213
-0.0384046 -0.321956
-0.0242097 -0.3096
-0.0176028 -0.301113
0.00071541 -0.297609
-0.00199639 -0.296944
-0.0373481 -0.247724
0.0387546 -0.239254
0.00395287 -0.279301
-0.00509267 -0.292073
-0.00410947 -0.296398
0.00393563 -0.295678
0.00558868 -0.291467
0.00276973 -0.303284
0.0156647 -0.308142
-0.0130828 -0.307132
-0.00317011 -0.30268
-0.00311704 -0.290638
-0.00218669 -0.290035
-0.000846399 -0.289965
0.000102086 -0.289666
0.00186449 -0.289433
0.00325827 -0.28954
0.0039545 -0.290193
-0.0077198 -0.302981
0.0206068 -0.336981
-0.00460325 -0.318809
-0.0242081 -0.338237
0.0277573 -0.270226
-0.0188741 -0.278879
0.0220175 -0.317354
0.0250023 -0.331006
-0.00564984 -0.287843
0.00646465 -0.283865
-0.0333652 -0.33624
-0.0185244 -0.315898
-0.016643 -0.291891
0.015931 -0.291926
-0.00667743 -0.289555
-0.0120785 -0.291351
-0.00567456 -0.300222
0.00536437 -0.299358
0.0114373 -0.290776
0.00723627 -0.289223
0.0135108 -0.314127
-0.00959213 -0.310041
-0.0023338 -0.289305
0.000604946 -0.288466
0.00500453 -0.316044
0.00654605 -0.30382
0.00730855 -0.315968
-0.00871607 -0.318276
0.00474696 -0.310496
-0.00320021 -0.307283
-0.00260925 -0.306602
0.000344549 -0.307556
-0.0117145 -0.316329
-0.0256417 -0.291185
0.00607131 -0.393527
-0.0128759 -0.342218
0.00396388 -0.35875
-0.000332341 -0.388361
0.00855585 -0.336498
-0.00593511 -0.393242
0.0371286 -0.275513
0.0184201 -0.321894
0.000543166 -0.388015
0.00195112 -0.350708
0.00876445 -0.313745
0.0090348 -0.151081
0.0215657 -0.175643
0.0118364 -0.145022
0.0349132 -0.208998
-0.00935182 -0.0785482
0.000787992 -0.0960794
0.00395391 -0.124131
-0.00171584 -0.12297
0.00704988 -0.147298
-0.0113759 -0.0952052
-0.00572863 -0.101319
-0.0164314 -0.076075
0.0118836 -0.117427
0.020428 -0.137012
-0.0232103 -0.0609625
-0.0123774 -0.0920499
-0.0113945 -0.158832
-0.0120845 -0.147666
-0.0234448 -0.183282
-0.00415283 -0.126483
0.00948115 -0.0787836
-0.000726697 -0.0963874
-0.037697 -0.218114
-0.0102851 -0.156278
-8.98107e-05 -0.12821
0.0108848 -0.0976892
0.016444 -0.0770958
0.00557351 -0.103298
0.0232164 -0.0617586
-0.0118475 -0.117832
-0.0203516 -0.137533
0.0110551 -0.0959509
-0.00858986 -0.235536
0.00700953 -0.253157
0.00801655 -0.216121
0.00345745 -0.276462
0 0
0 0
-0.00726778 -0.110835
-0.0209564 -0.214966
-0.0155511 -0.251726
0.00930514 -0.226238
-0.00775822 -0.210753
-0.00779137 -0.248963
0.00775175 -0.100716
0 0
-0.0420929 -0.170619
-0.00435899 -0.274875
0.0172897 -0.240857
0.0216213 -0.199572
-0.030055 -0.273228
-0.0306502 -0.274455
-0.0108125 -0.300577
-0.0468123 -0.250708
0.00679849 -0.324746
-0.0324579 -0.269417
-0.0388004 -0.253204
0.0393589 -0.259456
0.0252068 -0.281917
0.041672 -0.260577
0.00724944 -0.306335
0.0474211 -0.245142
0.041121 -0.242724
0.0370403 -0.260797
0.0357847 -0.221818
0.0365097 -0.220458
0.0219929 -0.186708
0.0115227 -0.155228
0.0336721 -0.217596
-0.0366246 -0.227335
-0.0261092 -0.197487
-0.0390656 -0.228566
-0.0156546 -0.165355
-0.0355036 -0.227886
-0.0112416 -0.125736
-0.0218181 -0.172523
-0.0122059 -0.117122
-0.0274136 -0.208647
0.00400594 -0.0397323
0.00169306 -0.0990532
-0.0132285 -0.148273
-0.00439992 -0.279069
-0.00355166 -0.277689
-0.0107096 -0.269321
-0.000306635 -0.280411
-0.0193361 -0.260512
-0.00459932 -0.279265
0.00249673 -0.279684
0.00787487 -0.275392
0.0127858 -0.261511
0.00476714 -0.274135
0.0225278 -0.248415
0.0109457 -0.274869
0.00783072 -0.116187
0.0101861 -0.107158
0.0201382 -0.15913
-0.0047573 -0.0385215
0.0262805 -0.193072
0.00948406 -0.138713
-0.00397532 -0.094187
-0.0311362 -0.271581
-0.0221132 -0.284828
-0.00968255 -0.300808
-0.014879 -0.294829
0.037873 -0.254671
0.0239934 -0.281265
0.00879337 -0.30146
0.00979677 -0.299973
-0.0346522 -0.262087
-0.0266053 -0.279304
-0.0192784 -0.289459
-0.0234931 -0.283727
-0.0265012 -0.278341
-0.0274895 -0.274351
-0.0313673 -0.268216
-0.0216886 -0.279778
-0.0256107 -0.272985
-0.0348888 -0.256041
-0.0208767 -0.285929
0.028109 -0.273278
0.0245087 -0.277236
0.0238413 -0.280598
0.0194539 -0.286429
0.0161178 -0.287321
0.0219914 -0.284814
-0.0170058 -0.282589
-0.0187656 -0.284212
-0.0175188 -0.287396
-0.0140709 -0.288046
-0.0142264 -0.282745
-0.0123259 -0.285404
-0.00993446 -0.287108
-0.00759493 -0.28671
0.00563424 -0.285544
0.00242239 -0.285492
0.00193321 -0.286762
-0.000141097 -0.287602
-0.00370058 -0.287244
0.00242034 -0.287772
0.0162189 -0.284783
0.0195912 -0.280729
0.0147126 -0.283074
0.0227962 -0.275588
0.0118412 -0.282074
0.00971276 -0.284829
0.0124787 -0.287776
0.00827744 -0.28645
0.00501477 -0.287658
0.00624789 -0.28865
0.00282965 -0.288389
0.00816181 -0.287412
0.00973764 -0.287783
0.0135091 -0.0204329
0.013231 -0.0524437
0.0103349 -0.0272973
0.0139301 -0.0770448
0 0
0 0
0.0165431 -0.016502
0.0279964 -0.0454094
0.0224785 -0.056818
0.025396 -0.0330475
-0.0289918 -0.161273
-0.0349925 -0.17534
-0.0255054 -0.0327436
-0.0228654 -0.0556846
-0.0279966 -0.0449027
-0.0153005 -0.0736966
0.0291141 -0.160573
0.0350149 -0.174403
-0.0166463 -0.0164281
-0.010724 -0.0268254
-0.0141881 -0.0509752
-0.0136094 -0.0202308
-0.0328334 -0.237198
-0.0165724 -0.268936
-0.0181184 -0.273206
-0.0116652 -0.276215
-0.0190245 -0.268361
-0.00288615 -0.279964
-0.0260776 -0.252709
-0.0226673 -0.272105
-0.0150495 -0.278202
-0.0306781 -0.250145
-0.0335314 -0.250762
-0.0288981 -0.262841
-0.0356425 -0.23904
-0.0301018 -0.233239
-0.0249977 -0.187466
-0.0327101 -0.218286
-0.0297746 -0.207803
0.027254 -0.193862
0.0302659 -0.20653
0.0212325 -0.175724
0.0356495 -0.228217
0.0305798 -0.218038
0.0339813 -0.251268
0.0359718 -0.240711
0.0332322 -0.235376
0.0375844 -0.248809
0.0293834 -0.236891
0.0301725 -0.260423
0.0321029 -0.264266
0.0188371 -0.275396
0.013071 -0.277303
0.0122374 -0.279683
0.0118654 -0.276153
0.00518772 -0.27948
0.00645516 -0.281841
0.0244294 -0.269964
0.0245671 -0.256295
0.0187793 -0.268245
0.0259959 -0.262556
0.0316715 -0.27004
0.0287113 -0.275613
0.0349851 -0.261992
0.0176697 -0.290482
0.0316002 -0.268958
0.026507 -0.279129
0.0202631 -0.287708
-0.00323547 -0.284992
-0.00784564 -0.284154
-0.00527965 -0.286118
-0.0124661 -0.281643
0.00070836 -0.283827
-0.00203643 -0.280878
-0.00797665 -0.280777
6.1601e-05 -0.282076
0.00435539 -0.36701
-0.00626558 -0.366058
-0.00437909 -0.379326
-0.00506395 -0.343904
-0.0127864 -0.359558
-0.0100653 -0.385946
0.0073112 -0.381513
0.0147217 -0.373402
0.0107268 -0.356083
0.0127285 -0.316251
0.00455394 -0.332224
0.00955262 -0.337823
-0.00134051 -0.328415
0.0199896 -0.344407
0.020785 -0.304517
0.0161874 -0.302239
0.0437258 -0.22671
0.0411239 -0.191097
0.0364606 -0.203175
0.0257162 -0.193425
0.0310096 -0.18538
0.0463422 -0.214408
-0.0410533 -0.192168
-0.0456135 -0.232949
-0.037579 -0.208963
-0.0320971 -0.190802
-0.0290063 -0.203621
-0.0456054 -0.215422
-0.0394348 -0.263022
-0.0400038 -0.266536
-0.028733 -0.279676
-0.0505913 -0.251617
-0.0381542 -0.275782
-0.0167747 -0.302628
-0.0198044 -0.291774
-0.0393453 -0.260193
-0.0440891 -0.249722
-0.000566974 -0.318131
0.00778733 -0.329451
-0.00139381 -0.313488
0.0163006 -0.347239
0.0155765 -0.340651
-0.00275108 -0.310126
-0.0116857 -0.298136
-0.00987651 -0.304652
0.000419713 -0.325435
-0.0317531 -0.270638
-0.0360047 -0.261812
-0.0362406 -0.262689
-0.0363673 -0.258507
-0.038219 -0.249871
-0.0402064 -0.251249
-0.0372025 -0.261951
-0.0211325 -0.285475
-0.0258447 -0.279375
0.0155269 -0.294911
0.00785368 -0.308798
0.0167285 -0.29687
-0.00196402 -0.323481
0.0251029 -0.2843
0.025283 -0.280274
0.0164231 -0.292062
0.0403843 -0.265393
0.0475598 -0.255956
0.0460636 -0.253038
0.0456282 -0.266091
0.0514862 -0.248031
0.0452084 -0.243315
0.0447474 -0.250402
0.0343423 -0.272548
0.0306678 -0.282647
0.0417376 -0.250624
0.0401907 -0.252127
0.0381219 -0.259966
0.0398324 -0.240623
0.0395372 -0.24976
0.0324612 -0.269266
0.0325649 -0.26976
0.0429263 -0.251052
0.0421274 -0.242273
0.0423809 -0.232456
0.0432963 -0.23077
0.0358729 -0.2169
0.0272902 -0.199391
0.0412521 -0.232536
0.0399375 -0.231802
0.0394903 -0.232884
0.0381542 -0.231338
0.0297824 -0.206214
-0.0388111 -0.225657
-0.0459063 -0.238022
-0.0438662 -0.239042
-0.0421729 -0.24017
-0.0310804 -0.209962
-0.0402673 -0.238246
-0.0395293 -0.241125
-0.0324359 -0.214695
-0.0379808 -0.238282
-0.0176592 -0.290346
-0.0109598 -0.299022
-0.0158793 -0.293053
-0.0163996 -0.292752
-0.00875692 -0.302014
-0.022105 -0.285321
0.00813408 -0.303119
0.000123748 -0.313902
-0.000995017 -0.317305
0.00173521 -0.310673
-0.00628444 -0.32216
-0.00922525 -0.332426
0.0165243 -0.291133
0.0167883 -0.290887
0.0093918 -0.300441
0.0168505 -0.290605
0.00257415 -0.309245
0.0245823 -0.280362
0.0292576 -0.273976
0.0206793 -0.286172
0.00559071 -0.305322
0.0140687 -0.294738
0.0219417 -0.285437
0.0258568 -0.279491
-0.00125889 -0.313912
0.00982441 -0.300215
0.011926 -0.297878
0.0043917 -0.306605
-0.00236593 -0.309772
0.00476403 -0.318345
-0.00252309 -0.309383
0.0132766 -0.329148
0.0125148 -0.32693
-0.00199566 -0.309624
-0.00293032 -0.309251
0.00724745 -0.345876
0.0126553 -0.36745
0.015234 -0.356673
0.00523588 -0.378158
0.0141287 -0.383884
0.0223764 -0.364757
-0.00146701 -0.336636
-0.00999804 -0.364786
-0.000961091 -0.370357
-0.00379096 -0.35096
-0.0072307 -0.381739
-0.00962092 -0.325177
-0.0172288 -0.353195
-0.0144623 -0.373828
-0.0292756 -0.308274
-0.0239179 -0.33745
-0.0181257 -0.318414
-0.0222662 -0.363574
-0.0309904 -0.350854
0.0282134 -0.381803
0.0243463 -0.392819
0.0320701 -0.396816
-0.0406641 -0.33381
-0.0473425 -0.306543
0.0398258 -0.400513
0.0299135 -0.37324
0.0359238 -0.304825
0.0262629 -0.301986
0.0268387 -0.32613
0.022313 -0.363281
0.0309941 -0.350615
-0.0230478 -0.381591
-0.0295658 -0.395855
-0.0210276 -0.394305
-0.0377155 -0.399619
0.0399282 -0.333814
0.0483618 -0.306937
-0.0215552 -0.365923
0.0450943 -0.3174
0.0502106 -0.31451
0.04463 -0.310902
0.0541673 -0.317731
0.0139107 -0.292736
0.0118968 -0.292481
0.0403249 -0.308131
0.0400902 -0.320365
0.0456209 -0.324181
0.0539259 -0.327899
0.0622272 -0.330008
0.0591485 -0.323066
0.0661402 -0.335801
0.00991598 -0.292291
0.00855327 -0.292192
0.0491019 -0.330761
0.0659455 -0.358527
0.0744717 -0.360646
0.0724763 -0.352401
0.0758201 -0.368468
0.00720336 -0.292126
0.00627642 -0.2921
0.0688423 -0.343919
0.0577141 -0.355474
0.0607288 -0.363457
0.0670239 -0.373224
0.0735069 -0.38224
0.0752389 -0.375755
0.0715918 -0.387767
0.069757 -0.401454
0.0730304 -0.398152
0.059911 -0.370033
0.0598107 -0.393365
0.0637618 -0.399943
0.0665394 -0.396511
0.0602718 -0.40232