<?xml version="1.0"?>
<VTKFile type="UnstructuredGrid">
  <UnstructuredGrid>
  <Piece NumberOfPoints="3487"  NumberOfCells="1698">
    <Points>
      <DataArray type="Float64" NumberOfComponents="3" format="ascii">
39.9729 48.5845 0
60.0278 48.5835 0
40.634 48.7154 0
41.2965 48.8375 0
41.9603 48.9506 0
42.6255 49.0546 0
43.2919 49.1496 0
43.9594 49.2355 0
44.628 49.3125 0
45.2975 49.3804 0
45.9679 49.4392 0
46.6389 49.489 0
47.3105 49.5298 0
47.9826 49.5615 0
48.6551 49.5841 0
49.3278 49.5976 0
50.0005 49.6021 0
50.6733 49.5976 0
51.346 49.5839 0
52.0184 49.5612 0
52.6905 49.5295 0
53.3621 49.4887 0
54.0331 49.4388 0
54.7034 49.3799 0
55.3729 49.3119 0
56.0415 49.2349 0
56.709 49.1489 0
57.3753 49.0538 0
58.0404 48.9498 0
58.7042 48.8367 0
59.3666 48.7145 0
39.9929 49.6008 0
39.9926 49.3468 0
39.9891 49.0927 0
39.9824 48.8386 0
19.885 69.4935 0
39.9898 49.8624 0
39.9834 50.124 0
39.968 50.5024 0
39.9455 50.8804 0
39.9001 51.4265 0
39.8398 51.9711 0
39.7261 52.7559 0
39.5812 53.5355 0
39.3171 54.652 0
38.9891 55.7517 0
38.7127 56.5346 0
38.4039 57.3055 0
38.0634 58.0629 0
37.6916 58.8055 0
37.0999 59.8512 0
36.4463 60.8596 0
35.7333 61.8269 0
-0.0594562 49.4377 0
17.2754 69.3122 0
14.7117 68.7927 0
12.2375 67.9438 0
9.89482 66.7799 0
7.7238 65.3208 0
11.5724 31.5468 0
0.150363 46.6194 0
0.757551 43.8597 0
1.75034 41.2142 0
0 0 0
0.111327 3.70398 0
0.516873 7.39588 0
1.20789 11.0496 0
2.17898 14.6383 0
3.08893 17.2796 0
49.9997 -0.381464 0
5.1116 0 0
10.2232 0 0
15.3348 0 0
100 0 0
57.4106 -0.369599 0
64.8215 -0.326258 0
72.2241 -0.235222 0
88.4284 31.5459 0
99.8888 3.70398 0
99.4833 7.39567 0
98.7923 11.0493 0
97.8212 14.6379 0
96.9113 17.2793 0
100.06 49.4373 0
99.8498 46.619 0
99.2427 43.8593 0
98.2499 41.2137 0
80.115 69.4928 0
99.8965 52.0476 0
99.3931 54.6144 0
98.5584 57.0931 0
97.4069 59.4419 0
95.9587 61.6199 0
60.0076 49.5998 0
77.6039 69.3453 0
75.131 68.8846 0
72.7353 68.1178 0
70.4544 67.057 0
68.9645 66.1608 0
67.5579 65.1388 0
66.2452 63.9985 0
65.0365 62.7487 0
64.2667 61.8259 0
63.5538 60.8586 0
62.9003 59.8503 0
62.3085 58.8045 0
61.5963 57.3046 0
61.0111 55.7508 0
60.6832 54.6511 0
60.419 53.5345 0
60.2742 52.7548 0
60.0079 49.3457 0
60.0114 49.0917 0
60.0181 48.8376 0
52.8146 29.8609 0
26.5486 36.6846 0
40.3483 23.9951 0
24.9625 22.3038 0
71.9078 22.3209 0
72.7012 43.7254 0
54.7951 23.8138 0
15.283 47.1566 0
38.3571 49.2098 0
23.5434 64.9773 0
7.67905 7.71083 0
91.9623 7.68864 0
29.134 56.6431 0
37.1726 51.678 0
28.0851 46.9656 0
29.7228 47.9272 0
71.5172 46.4512 0
30.9797 48.8259 0
70.5199 47.9281 0
31.6384 45.4183 0
30.8857 46.8709 0
70.0651 46.4412 0
68.98 44.7685 0
31.2811 49.9201 0
30.89 51.1412 0
28.1787 48.9194 0
45.3116 41.0615 0
53.8412 40.6825 0
56.0231 40.2314 0
73.1329 47.2032 0
70.123 49.1675 0
68.324 42.2018 0
32.3192 42.5322 0
26.1355 45.4486 0
27.6794 44.4562 0
30.311 43.0885 0
70.4054 42.3995 0
72.6778 45.7173 0
44.8518 42.8536 0
51.4299 41.7602 0
55.4069 42.3463 0
32.4442 48.8638 0
68.5633 49.4053 0
39.4835 41.8444 0
35.446 43.1582 0
32.8952 46.3165 0
33.574 48.0634 0
67.1075 48.0071 0
67.9824 46.2456 0
65.0662 42.821 0
60.4126 41.4817 0
32.3546 51.1797 0
28.2015 50.7755 0
41.7862 37.0691 0
46.8266 37.4731 0
52.0475 39.6452 0
58.671 39.0149 0
26.5864 51.6687 0
24.2834 50.1018 0
74.2412 49.711 0
71.1786 50.416 0
69.159 51.9973 0
67.9333 52.1326 0
59.7527 36.1362 0
66.4927 40.4503 0
34.1175 40.8269 0
36.0395 35.5695 0
23.1749 46.9366 0
21.6473 43.0475 0
28.362 41.5733 0
74.3166 44.4779 0
76.6493 48.3169 0
43.0575 43.4414 0
46.2707 42.7274 0
49.9682 42.7752 0
48.4338 42.5582 0
51.7625 43.8126 0
54.0868 43.9282 0
52.9051 44.2238 0
56.2699 43.4769 0
33.8756 49.1581 0
33.7722 50.6702 0
66.5501 51.484 0
66.603 49.4945 0
41.8356 43.6787 0
40.7071 43.4161 0
38.4662 43.0227 0
37.1475 43.6269 0
35.3493 45.3324 0
34.3264 46.6099 0
66.0226 46.3335 0
65.0154 45.062 0
63.1843 43.3103 0
61.6987 42.8619 0
58.8745 43.2762 0
57.5359 43.5926 0
33.381 51.8919 0
29.1442 53.4943 0
40.8461 30.7957 0
50.8845 35.7872 0
55.661 34.0702 0
23.5338 53.2085 0
76.941 51.6783 0
70.259 53.1018 0
66.4245 52.7246 0
65.4568 34.9548 0
30.9718 34.3755 0
19.4325 47.0522 0
26.1402 39.813 0
71.9815 33.8987 0
72.0437 41.1613 0
77.4889 45.0767 0
43.1695 44.8834 0
45.8111 44.5197 0
48.7654 44.6105 0
51.4431 45.2389 0
53.768 45.3546 0
56.2162 45.1748 0
34.9022 49.87 0
65.0939 50.0857 0
40.8185 44.8579 0
38.3709 45.199 0
36.0289 47.0803 0
64.1397 46.8246 0
61.6464 45.1052 0
58.8216 44.974 0
36.0538 52.1448 0
34.8999 52.9053 0
33.4824 53.4142 0
31.8754 55.2021 0
26.0524 58.6567 0
22.9581 57.0567 0
32.4206 22.5186 0
47.0414 26.4811 0
63.1192 22.8527 0
19.9542 54.7631 0
80.2221 54.0289 0
75.8342 55.5428 0
71.9693 55.9016 0
69.1183 55.2282 0
65.7948 53.7337 0
64.1178 53.5814 0
68.1299 28.8076 0
26.8034 29.9009 0
17.209 51.4946 0
14.593 42.2108 0
22.4275 33.8719 0
84.915 46.6187 0
84.7537 51.7615 0
75.1529 37.7286 0
81.2182 43.711 0
42.4582 46.2137 0
41.418 46.0218 0
44.9669 46.0593 0
43.6808 45.9762 0
47.737 46.0005 0
46.3866 45.9331 0
50.62 46.3137 0
49.2724 46.2176 0
53.0503 46.7087 0
51.763 46.725 0
55.5122 46.321 0
54.2326 46.413 0
58.0601 46.2744 0
56.7789 46.4368 0
36.3706 48.4022 0
36.021 49.4026 0
35.9174 50.9156 0
63.3987 51.8497 0
63.8393 50.8366 0
63.8924 48.8459 0
63.8391 47.9439 0
40.289 45.7588 0
39.3732 45.9378 0
38.0537 46.5412 0
37.3939 47.1245 0
62.8316 46.6721 0
62.0153 46.3485 0
60.5288 45.901 0
59.3995 45.9575 0
38.045 52.3501 0
36.1549 53.6682 0
34.042 56.5235 0
29.5528 59.5804 0
22.8189 61.1118 0
21.7546 15.2959 0
39.9782 16.0256 0
48.9019 11.2977 0
56.9333 16.7503 0
76.6262 15.5243 0
15.5873 56.7987 0
84.5727 57.2328 0
73.4576 59.2384 0
66.5485 55.3913 0
62.4755 53.3559 0
82.9416 7.78634 0
79.7183 22.4618 0
16.3053 7.8701 0
18.3688 22.1853 0
10.6922 46.5052 0
16.6011 35.8011 0
15.5587 30.2307 0
89.4417 49.3752 0
83.2753 31.0692 0
81.5657 39.0842 0
41.929 47.115 0
44.2562 47.3898 0
46.8933 47.5403 0
49.5919 47.7038 0
52.2272 47.7836 0
54.7946 47.6752 0
57.3563 47.4207 0
37.3862 49.4477 0
37.9089 51.12 0
62.1968 50.6099 0
62.5839 48.6942 0
39.9724 47.1022 0
38.3962 47.864 0
38.5096 48.6338 0
61.7669 48.3314 0
61.714 47.4685 0
59.7677 47.202 0
38.8796 50.8829 0
61.3576 50.8163 0
39.1813 52.6638 0
38.445 53.2214 0
38.1491 54.3293 0
36.9953 55.0893 0
36.4849 56.8606 0
34.8311 58.3777 0
33.317 60.2298 0
30.6929 62.3314 0
27.9252 64.474 0
27.1813 7.70417 0
38.6607 8.16716 0
59.8724 8.3871 0
71.7552 7.77518 0
19.1692 64.4116 0
14.8751 62.6692 0
10.6796 59.8744 0
6.23592 56.8236 0
5.95584 50.8952 0
94.2802 51.9904 0
93.3737 57.0427 0
89.3939 60.393 0
84.6448 62.9134 0
79.5398 64.5959 0
74.6369 63.642 0
70.3236 62.3731 0
66.881 60.9303 0
65.2569 58.2642 0
62.7514 56.9458 0
62.1029 55.4191 0
61.8068 54.3111 0
61.0877 52.5788 0
93.5076 14.4952 0
89.7933 20.626 0
86.0895 24.9295 0
6.2386 14.4892 0
13.0266 24.4024 0
9.79096 20.6181 0
5.73102 45.3329 0
5.64145 40.3948 0
12.3243 34.5242 0
94.2622 46.8769 0
88.1115 36.854 0
93.3776 42.1583 0
41.0921 47.8803 0
40.4309 47.7538 0
42.1332 48.0721 0
43.4643 48.271 0
42.7974 48.1806 0
44.751 48.3542 0
46.0906 48.4809 0
45.42 48.4265 0
47.4415 48.5484 0
48.7858 48.6026 0
48.1133 48.5845 0
50.1338 48.6987 0
51.4791 48.6805 0
50.8066 48.6987 0
52.7667 48.6642 0
54.1091 48.5735 0
53.4385 48.6279 0
55.3892 48.4814 0
56.725 48.3184 0
56.0582 48.4089 0
58.007 48.156 0
59.3325 47.9209 0
58.6713 48.0474 0
39.3634 51.3363 0
39.3105 51.8816 0
60.9584 51.7967 0
60.9056 51.2514 0
38.0071 50.2109 0
39.1306 49.3971 0
61.798 49.8025 0
61.8204 49.2341 0
60.9809 49.4401 0
39.5145 47.9324 0
39.1701 48.0507 0
60.95 48.0083 0
60.4626 47.8641 0
39.4617 50.4268 0
60.5068 50.4439 0
39.4854 49.787 0
39.4807 50.0486 0
60.4878 50.0658 0
60.4831 49.8042 0
39.6382 49.2106 0
39.628 48.7027 0
39.6363 48.9566 0
60.5052 49.2353 0
60.5072 48.9814 0
60.5156 48.7276 0
61.0033 48.8715 0
39.2833 48.8208 0
60.9587 50.0087 0
38.9779 49.9734 0
60.8976 47.1449 0
39.0562 47.2806 0
62.6376 49.5966 0
37.0362 50.4485 0
61.7565 51.6237 0
38.7812 51.7923 0
58.6379 47.2581 0
56.0746 47.583 0
53.5147 47.7672 0
50.9398 47.7998 0
48.244 47.6077 0
45.5426 47.4728 0
42.9697 47.3066 0
40.8885 46.923 0
89.1744 44.5401 0
10.9159 40.6794 0
13.2801 16.0971 0
85.8799 16.3005 0
63.1947 55.0879 0
68.9562 58.2406 0
78.9935 59.6139 0
89.337 54.6508 0
11.73 52.6042 0
19.1837 59.4374 0
66.6936 15.5928 0
30.7789 15.3235 0
26.3038 61.8925 0
32.1257 57.7588 0
35.001 54.4284 0
37.3087 52.9079 0
62.5308 47.7918 0
37.7358 48.4469 0
75.9137 28.5126 0
20.5409 28.4269 0
47.9177 19.1006 0
60.1606 44.6569 0
63.1328 45.5526 0
37.0513 45.8023 0
39.6898 44.5948 0
65.1475 48.0959 0
65.0413 52.0761 0
34.7985 51.3826 0
35.0053 48.3576 0
57.4826 45.2906 0
54.9499 45.0589 0
52.5859 45.6502 0
50.3004 44.8276 0
47.2304 44.3934 0
44.3917 44.6458 0
41.9472 45.1207 0
74.3397 42.4871 0
80.2829 48.6502 0
17.9923 43.1189 0
21.2903 50.5604 0
34.4617 29.5227 0
59.972 30.0684 0
67.8078 53.3729 0
73.4232 52.8015 0
54.4579 38.5677 0
46.5129 32.7262 0
26.2054 55.1675 0
31.9633 52.4012 0
69.7497 39.8336 0
30.9914 40.2033 0
57.5893 41.8949 0
63.2364 41.0682 0
66.8981 44.572 0
33.6471 44.863 0
37.2429 41.4516 0
41.7239 42.237 0
68.0591 50.8926 0
32.7457 49.9583 0
53.2241 42.7975 0
49.6363 40.7229 0
74.2937 46.4691 0
25.7301 42.941 0
71.9722 47.9376 0
26.5408 47.9575 0
69.0678 47.9186 0
32.1425 47.7695 0
71.0626 44.9648 0
29.6287 45.9729 0
29.8164 49.882 0
88.1353 34.2088 0
96.8909 38.737 0
91.2905 35.5358 0
92.2318 38.3873 0
96.0821 37.5778 0
88.5031 40.5741 0
3.10934 38.7374 0
11.8988 32.9913 0
10.0176 34.8294 0
3.91821 37.5783 0
8.31973 37.3115 0
11.6987 36.8475 0
11.4082 22.5117 0
11.0028 26.3528 0
9.3847 24.4662 0
11.8903 28.8159 0
4.14871 19.8624 0
5.35496 22.378 0
8.24432 22.7142 0
11.5344 18.3556 0
13.1511 20.2508 0
8.01328 17.5571 0
6.96842 20.2413 0
5.1916 17.1733 0
6.70312 24.8175 0
7.80682 26.595 0
4.20808 14.5641 0
9.75762 15.2954 0
87.9421 22.7789 0
90.4076 24.469 0
88.5554 26.6136 0
91.5481 22.7175 0
95.8515 19.8621 0
94.6451 22.3776 0
87.6896 29.1249 0
[...]
    <PointData>
      <DataArray type="Float64" NumberOfComponents="2" Name="Displacement" format="ascii">
-0.00135019 -0.400026
0.00196523 -0.401015
-0.000376593 -0.399586
0.000303465 -0.399088
0.000662841 -0.398746
0.000912278 -0.398456
0.00106567 -0.398243
0.00116429 -0.398095
0.00120396 -0.397969
0.00120688 -0.397881
0.00117369 -0.397828
0.00111475 -0.397805
0.00102962 -0.397786
0.000927042 -0.397785
0.000808707 -0.397802
0.000681276 -0.397833
0.000545776 -0.397862
0.000408598 -0.397901
0.000273073 -0.397953
0.000143795 -0.398019
2.57164e-05 -0.398084
-7.83062e-05 -0.398167
-0.000162884 -0.398272
-0.000223936 -0.398401
-0.000250626 -0.39854
-0.000243897 -0.398719
-0.000192281 -0.398945
-9.06354e-05 -0.399226
0.000124313 -0.399526
0.000431622 -0.399933
0.00100827 -0.400494
-0.00714163 -0.399205
-0.00580093 -0.399264
-0.004468 -0.399372
-0.00308435 -0.399611
-0.115037 -0.506479
-0.00843888 -0.399206
-0.00973901 -0.399235
-0.011635 -0.399314
-0.0135485 -0.399441
-0.0163242 -0.399703
-0.0191346 -0.400055
-0.0232582 -0.400724
-0.0274343 -0.401579
-0.0335395 -0.403153
-0.0396853 -0.405117
-0.0441172 -0.406773
-0.0485284 -0.408631
-0.052895 -0.4107
-0.0571991 -0.412959
-0.063276 -0.416555
-0.0691512 -0.420513
-0.0747646 -0.424817
-0.0594562 -0.562307
-0.114057 -0.516707
-0.111919 -0.525846
-0.108902 -0.533799
-0.105181 -0.540579
-0.101009 -0.546272
0.0760174 -0.35106
-0.0493972 -0.56094
-0.0374986 -0.557303
-0.0236332 -0.551032
0 0
-0.0279424 -0.0253044
-0.0394279 -0.0419054
-0.0408787 -0.055283
-0.0338136 -0.0717034
-0.0242032 -0.0876895
-0.000334232 -0.381464
0 0
0 0
0 0
0 0
0.022219 -0.369599
0.0447456 -0.326258
0.0588623 -0.235222
-0.0752099 -0.351924
0.0280543 -0.0252671
0.0396027 -0.0420543
0.041083 -0.0555145
0.0340405 -0.0720068
0.0244307 -0.0880019
0.0596305 -0.562746
0.0495699 -0.56137
0.0377388 -0.55772
0.023833 -0.551527
0.114978 -0.507175
0.0676476 -0.562921
0.0745976 -0.562016
0.0808073 -0.560475
0.0863825 -0.558147
0.0915911 -0.555239
0.00755675 -0.400221
0.114615 -0.496445
0.112742 -0.485028
0.109194 -0.473165
0.103904 -0.461182
0.099185 -0.453014
0.0936362 -0.445063
0.0872647 -0.437471
0.0801593 -0.430331
0.0748378 -0.425737
0.0692407 -0.421449
0.0633825 -0.417502
0.057323 -0.413917
0.0486896 -0.409621
0.0398776 -0.406086
0.0337557 -0.404144
0.0276903 -0.40259
0.0235312 -0.401736
0.0062561 -0.400296
0.00496056 -0.400416
0.00358632 -0.400657
-0.00775089 -0.38822
0.034316 -0.386595
0.0268384 -0.37298
0.0454946 -0.302602
-0.0458786 -0.320529
-0.00704542 -0.418554
-0.013874 -0.382424
-0.0322358 -0.474325
-0.00568938 -0.405729
-0.0947979 -0.48901
-0.0296318 -0.0538948
0.0291241 -0.0549312
-0.0499522 -0.45274
-0.0182256 -0.412265
-0.00555631 -0.428809
-0.0077215 -0.428008
0.00314259 -0.426855
-0.0102032 -0.427336
0.00831319 -0.42951
0.00429628 -0.415819
-0.00203221 -0.421833
0.00152006 -0.42354
-0.00597539 -0.415933
-0.0147476 -0.429441
-0.020849 -0.43383
-0.0140818 -0.435477
0.00677077 -0.395318
-0.0053154 -0.395747
-0.00894771 -0.395684
0.00853165 -0.433588
0.0132844 -0.432312
-0.0152494 -0.406996
0.0145626 -0.406306
-0.00152503 -0.427277
0.00467048 -0.42002
0.0120947 -0.41068
-0.0139648 -0.410071
0.00140386 -0.426645
0.00579013 -0.39617
-0.00150569 -0.396066
-0.00600318 -0.396665
-0.00885345 -0.423309
0.0125692 -0.428494
0.0128992 -0.397441
0.0125591 -0.403675
0.00180725 -0.415637
-0.00447255 -0.418242
0.00516748 -0.42084
-0.00108821 -0.418315
-0.0132346 -0.404648
-0.0130569 -0.398009
-0.0194487 -0.429073
-0.0225607 -0.441456
0.0162938 -0.392118
0.00646697 -0.393388
-0.00305191 -0.395163
-0.0144952 -0.395086
-0.029101 -0.449594
-0.0256782 -0.45172
0.0215936 -0.446308
0.020303 -0.439244
0.0252428 -0.436973
0.0245896 -0.433018
-0.0199685 -0.391852
-0.0201646 -0.400448
0.0191546 -0.40002
0.0281627 -0.388036
-0.0132217 -0.441648
0.00231604 -0.42543
0.0167948 -0.407397
-0.00188565 -0.424812
0.0194552 -0.448188
0.00690835 -0.39669
0.00438489 -0.396116
0.000360894 -0.396361
0.00208397 -0.396164
-0.0012531 -0.396866
-0.00326177 -0.397096
-0.00206621 -0.397092
-0.00569326 -0.397316
-0.00879473 -0.419831
-0.0156925 -0.423272
0.0201438 -0.426843
0.0110316 -0.422892
0.00765615 -0.397236
0.0090445 -0.397795
0.0115361 -0.399538
0.0108961 -0.401999
0.0063567 -0.408087
0.0016492 -0.413029
-0.00205256 -0.414146
-0.00671668 -0.409224
-0.0113943 -0.402985
-0.0115843 -0.400521
-0.00843773 -0.398352
-0.00671148 -0.397776
-0.021893 -0.426982
-0.0342753 -0.445816
0.0237649 -0.383275
-0.0016733 -0.39293
-0.013185 -0.39115
-0.041176 -0.465525
0.0352632 -0.462718
0.0318593 -0.443528
0.0261188 -0.428641
-0.0313075 -0.386607
0.0372016 -0.38063
-0.0217131 -0.454902
0.0225986 -0.401473
-0.040899 -0.375659
-0.0178484 -0.406975
0.00601214 -0.435168
0.00497544 -0.397218
0.00354169 -0.396792
0.00129691 -0.396934
-0.000578019 -0.397304
-0.00200353 -0.39753
-0.00363651 -0.397897
-0.0110496 -0.418058
0.0123763 -0.419336
0.00645578 -0.398462
0.00683119 -0.401958
0.000967631 -0.409749
-0.00132936 -0.410666
-0.00659234 -0.402878
-0.00549898 -0.399118
-0.0211643 -0.417279
-0.0257607 -0.422867
-0.0294146 -0.42927
-0.0399686 -0.438754
-0.0631369 -0.469561
-0.0594498 -0.478869
0.0425814 -0.342239
0.0084374 -0.384747
-0.0346926 -0.362214
-0.0541086 -0.484588
0.051451 -0.483683
0.0509977 -0.470892
0.0476274 -0.456555
0.0412151 -0.443727
0.0307541 -0.427736
0.0289351 -0.42048
-0.0428415 -0.363147
0.0486837 -0.354006
-0.0458086 -0.484612
-0.0110778 -0.448788
0.0451407 -0.368144
0.0305564 -0.473257
0.0509101 -0.495276
-0.0302026 -0.392402
0.007465 -0.439121
0.00353353 -0.397855
0.00414139 -0.398362
0.00284758 -0.397315
0.00342174 -0.397445
0.00159117 -0.397299
0.00229351 -0.397243
9.25632e-05 -0.397541
0.000768255 -0.397434
-0.000895955 -0.39782
-0.000356759 -0.397715
-0.00209814 -0.398063
-0.0015332 -0.397881
-0.00297245 -0.398952
-0.00239209 -0.398425
-0.00366447 -0.411012
-0.00811033 -0.413671
-0.0151566 -0.416249
0.0196745 -0.415679
0.0149487 -0.416181
0.00606215 -0.413438
0.00245843 -0.411803
0.00503229 -0.399352
0.00494046 -0.40076
0.00347823 -0.403936
0.00151646 -0.40628
-0.00237082 -0.407194
-0.00350523 -0.404855
-0.00447722 -0.401549
-0.0039767 -0.399991
-0.0213732 -0.408941
-0.029004 -0.418454
-0.0454223 -0.431004
-0.0646363 -0.455581
-0.077794 -0.487658
0.0267654 -0.222128
0.0226197 -0.36428
0.00145975 -0.385103
-0.016639 -0.375491
-0.0313717 -0.239747
-0.068946 -0.508556
0.0708587 -0.510925
0.065581 -0.4693
0.039926 -0.433213
0.0270749 -0.412892
0.00338331 -0.097801
-0.0400336 -0.278368
-0.00571816 -0.0935374
0.0346555 -0.263177
-0.0399174 -0.498704
0.0348165 -0.384178
0.0601502 -0.332435
0.0509206 -0.510761
-0.0581605 -0.342691
-0.0169143 -0.408027
0.00234412 -0.398314
0.0020056 -0.397745
0.00142559 -0.397631
0.000586351 -0.39775
-0.000236346 -0.397946
-0.000899649 -0.398246
-0.00131049 -0.398889
-0.00735247 -0.409258
-0.0151167 -0.408793
0.0129804 -0.409787
0.00455258 -0.409195
0.00230025 -0.400159
-0.00033263 -0.404371
-0.00306667 -0.404744
0.00258803 -0.406269
-0.000381171 -0.405251
-0.00153088 -0.400725
-0.0136528 -0.404523
0.0137177 -0.406503
-0.0228122 -0.403555
-0.0258791 -0.407423
-0.0319069 -0.409345
-0.0363336 -0.415556
-0.0462879 -0.419156
-0.0552736 -0.428677
-0.0661088 -0.43777
-0.0785292 -0.452737
-0.0906983 -0.468028
0.0198731 -0.235559
0.00743525 -0.353887
-0.00699552 -0.362348
-0.0189522 -0.253602
-0.0945377 -0.507122
-0.0906348 -0.521911
-0.0845035 -0.533771
-0.0786757 -0.545818
-0.0615782 -0.538551
0.0653018 -0.541993
0.0791365 -0.54522
0.0861809 -0.535247
0.0912194 -0.521041
0.0946198 -0.502705
0.0877096 -0.480382
0.0792252 -0.458718
0.0701578 -0.440114
0.0548174 -0.429966
0.0467754 -0.41605
0.0381489 -0.412027
0.0320247 -0.410075
0.0226819 -0.405874
0.0275288 -0.097618
-0.00140333 -0.177121
-0.0319678 -0.260724
-0.0279011 -0.0956217
0.0264944 -0.245106
0.000347902 -0.171989
-0.0420847 -0.529018
-0.0182758 -0.520175
0.034465 -0.396724
0.0482977 -0.532685
-0.0126721 -0.429272
0.0274811 -0.515424
0.00105331 -0.398972
0.00092239 -0.399468
0.00128099 -0.398475
0.00143712 -0.398082
0.00138195 -0.398255
0.00146042 -0.397871
0.00131797 -0.39778
0.00140192 -0.397818
0.00108793 -0.397768
0.000790403 -0.397805
0.000944974 -0.397785
0.000466203 -0.397878
0.000137723 -0.397969
0.000301329 -0.397923
-0.000146143 -0.398089
-0.000397497 -0.398258
-0.000279617 -0.398169
-0.000541454 -0.398491
-0.000584132 -0.398853
-0.000579933 -0.398659
-0.000423231 -0.399363
-9.40239e-05 -0.400165
-0.000287192 -0.399726
-0.0158983 -0.402376
-0.018708 -0.40274
0.0186144 -0.405022
0.0158257 -0.404624
-0.0105762 -0.40776
-0.00616682 -0.403059
0.00894019 -0.407673
0.00633091 -0.407303
0.00687081 -0.404444
0.00016583 -0.40121
-0.000433779 -0.402262
0.000906059 -0.403548
0.000178171 -0.40209
-0.0112756 -0.40177
0.0117407 -0.402619
-0.00807 -0.401618
-0.0093866 -0.401649
0.00987111 -0.402496
0.00857131 -0.402463
-0.00509318 -0.400989
-0.00236877 -0.401136
-0.00378366 -0.401043
0.00572446 -0.402566
0.00444733 -0.402569
0.00314945 -0.402592
0.00422219 -0.40427
-0.00329024 -0.402313
0.0096393 -0.404541
-0.00907172 -0.403818
-0.0015609 -0.402921
0.00172783 -0.402138
0.00844984 -0.410439
-0.0122104 -0.411605
0.0178853 -0.408621
-0.0183151 -0.405269
-0.00144807 -0.399544
-0.001126 -0.398505
-0.000591661 -0.398077
0.000162459 -0.397848
0.00102437 -0.397674
0.00176777 -0.397645
0.00213758 -0.397985
0.00265186 -0.398982
0.0318194 -0.489726
-0.0133383 -0.467895
-0.00211917 -0.161263
-0.00166588 -0.170606
0.0366019 -0.417439
0.0566847 -0.447815
0.0731919 -0.493306
0.0683841 -0.525114
-0.0600436 -0.514267
-0.0744684 -0.499733
-0.0344705 -0.327936
0.036711 -0.306738
-0.0786297 -0.47344
-0.0532387 -0.441359
-0.0336381 -0.424342
-0.0245173 -0.412644
0.00111073 -0.407897
-0.00288387 -0.406974
-0.0516591 -0.340085
0.0536842 -0.328499
0.00543459 -0.383365
-0.00693026 -0.400341
-0.00556569 -0.406279
0.00532732 -0.405286
0.00761747 -0.399513
0.0039544 -0.415735
0.0218156 -0.422361
-0.0182357 -0.420989
-0.00450706 -0.414903
-0.00421971 -0.398388
-0.00296417 -0.397588
-0.00114168 -0.397503
0.000144356 -0.3971
0.00254373 -0.396777
0.00443648 -0.396907
0.0053721 -0.397775
-0.0106349 -0.415612
0.0284424 -0.462451
-0.00626625 -0.437619
-0.0334538 -0.4641
0.0382837 -0.370791
-0.0260018 -0.382581
0.0305825 -0.435066
0.0346463 -0.453973
-0.00775819 -0.394654
0.00890159 -0.389324
-0.0462057 -0.461156
-0.0257426 -0.433084
-0.0229348 -0.400316
0.0219479 -0.400345
-0.00914263 -0.396942
-0.0165927 -0.399441
-0.00773948 -0.411613
0.00731107 -0.410414
0.0157085 -0.398642
0.00991159 -0.396481
0.0188074 -0.430663
-0.0133864 -0.425045
-0.00318511 -0.396609
0.000831848 -0.395483
0.00696833 -0.433507
0.00901364 -0.416759
0.0101853 -0.43332
-0.01211 -0.436535
0.00666936 -0.42573
-0.00453428 -0.421293
-0.00352703 -0.420466
0.000390748 -0.421749
-0.0162973 -0.433753
-0.0357097 -0.400072
0.00784052 -0.540904
-0.0182635 -0.470397
0.00500938 -0.49305
-0.0010049 -0.533801
0.0115263 -0.462274
-0.00764776 -0.540515
0.0516046 -0.378461
0.0258685 -0.442461
0.00130072 -0.533327
0.00316178 -0.482021
0.0124041 -0.431084
0.0128115 -0.20714
0.0301534 -0.240764
0.0167851 -0.198674
0.0485569 -0.286647
-0.0123472 -0.107376
0.00164882 -0.131414
0.00593162 -0.169991
-0.00204911 -0.168614
0.00999935 -0.202064
-0.0152731 -0.130383
-0.0074136 -0.13869
-0.0221808 -0.104058
0.0169603 -0.160697
0.0287543 -0.187564
-0.0315656 -0.0833492
-0.016737 -0.126145
-0.0160383 -0.217815
-0.0171133 -0.202317
-0.0327201 -0.251288
-0.00619401 -0.17323
0.0125293 -0.1077
-0.00156035 -0.131838
-0.052386 -0.299246
-0.0144317 -0.214434
-0.000418008 -0.175835
0.0146087 -0.133804
0.0222043 -0.105463
0.0072097 -0.141413
0.0315793 -0.0844451
-0.0169063 -0.161255
-0.028645 -0.188281
0.0149296 -0.131516
-0.0116495 -0.323588
0.00977013 -0.347673
0.0112506 -0.296986
0.00480298 -0.379556
0 0
0 0
-0.00991857 -0.15249
-0.0287202 -0.295381
-0.0212833 -0.345739
0.0126307 -0.310857
-0.010898 -0.289635
-0.0108471 -0.341931
0.0106089 -0.138586
0 0
-0.058108 -0.234397
-0.00604196 -0.377385
0.0236712 -0.330866
0.0296527 -0.274275
-0.0416776 -0.375024
-0.0425688 -0.376828
-0.0151102 -0.412747
-0.0650714 -0.344196
0.00922394 -0.445925
-0.044929 -0.369733
-0.0537711 -0.347587
0.0546413 -0.356171
0.0350395 -0.387132
0.0578938 -0.357744
0.0102139 -0.420711
0.0659207 -0.336572
0.0570431 -0.333252
0.0513663 -0.35798
0.0496362 -0.304562
0.0506945 -0.302615
0.0305552 -0.256288
0.0160839 -0.213085
0.0466345 -0.298807
-0.0507582 -0.312158
-0.0362055 -0.271146
-0.0542235 -0.313804
-0.0217442 -0.227042
-0.049111 -0.312937
-0.0155351 -0.172807
-0.0299647 -0.237152
-0.016782 -0.161092
-0.0376936 -0.286681
0.00547651 -0.054589
0.00218761 -0.135987
-0.018337 -0.203666
-0.00602571 -0.383112
-0.00483562 -0.381247
-0.0146574 -0.369798
-0.000423164 -0.384967
-0.0265461 -0.357724
-0.00631324 -0.383334
0.0034268 -0.38394
0.010791 -0.378089
0.0174999 -0.359121
0.00649474 -0.37639
0.0309366 -0.341177
0.0150347 -0.377332
0.0108673 -0.159653
0.0140324 -0.147379
0.0276846 -0.218754
-0.00650907 -0.0529159
0.0361633 -0.265311
0.0132079 -0.190497
-0.00531461 -0.129278
-0.0430543 -0.372661
-0.0306213 -0.390865
-0.0134062 -0.412757
-0.0205465 -0.404459
0.0524593 -0.349582
0.0332629 -0.386029
0.0122737 -0.413851
0.0136069 -0.411694
-0.0479071 -0.359694
-0.0367649 -0.383197
-0.0266079 -0.397054
-0.0324254 -0.389195
-0.0365693 -0.381827
-0.0379219 -0.376396
-0.0433105 -0.368041
-0.0298913 -0.383773
-0.0353073 -0.374557
-0.0481936 -0.351443
-0.0287798 -0.392146
0.0387864 -0.374931
0.033798 -0.38031
0.032882 -0.384879
0.0268105 -0.392806
0.0221883 -0.393975
0.0303359 -0.390646
-0.0234235 -0.387585
-0.0258493 -0.389772
-0.0241229 -0.394098
-0.0193542 -0.394946
-0.0195911 -0.387815
-0.0169641 -0.391385
-0.013659 -0.393669
-0.0104439 -0.393142
0.00775374 -0.39157
0.00333506 -0.391515
0.00265974 -0.393207
-0.000191586 -0.39433
-0.00508447 -0.393858
0.00332469 -0.394551
0.0223343 -0.390525
0.0269985 -0.38505
0.0202637 -0.388227
0.0314229 -0.378091
0.016309 -0.386901
0.0133697 -0.390598
0.0171577 -0.394557
0.0113832 -0.39277
0.00688653 -0.394391
0.00856109 -0.39571
0.00388026 -0.395373
0.011213 -0.394055
0.0133769 -0.394553
0.0185457 -0.0279847
0.0181047 -0.0719216
0.0141942 -0.0374398
0.0189665 -0.105626
0 0
0 0
0.0226848 -0.0225773
0.0382463 -0.0620761
0.0307003 -0.0777879
0.0347749 -0.0452024
-0.0405612 -0.22085
-0.0488525 -0.240159
-0.0349209 -0.0447831
-0.0312254 -0.0762266
-0.0382422 -0.0613782
-0.0208428 -0.101015
0.0407347 -0.219887
0.048891 -0.238868
-0.0228238 -0.0224749
-0.0147271 -0.0367872
-0.0194146 -0.0698945
-0.0186814 -0.0277065
-0.0451828 -0.325753
-0.0227931 -0.369225
-0.0249345 -0.374967
-0.0160341 -0.379131
-0.0261561 -0.368407
-0.00396523 -0.384231
-0.0358689 -0.347007
-0.0312254 -0.373406
-0.0207213 -0.381719
-0.0422678 -0.343454
-0.0462649 -0.344258
-0.0398333 -0.360764
-0.0492322 -0.328222
-0.0414331 -0.320356
-0.0345259 -0.257525
-0.0451717 -0.299808
-0.0410403 -0.285475
0.037609 -0.266329
0.0418452 -0.283664
0.0293719 -0.241371
0.0493059 -0.313395
0.0421246 -0.299522
0.0469017 -0.344941
0.0497044 -0.330503
0.0458313 -0.323238
0.0520049 -0.341562
0.0404419 -0.325358
0.0416048 -0.357457
0.0443196 -0.362662
0.0259498 -0.377877
0.0179966 -0.380524
0.0168551 -0.383702
0.0163223 -0.379025
0.00713971 -0.383544
0.00889123 -0.386626
0.0336653 -0.370475
0.0337916 -0.351916
0.0258264 -0.368244
0.0358033 -0.360416
0.0437792 -0.370541
0.0397123 -0.378179
0.0483992 -0.359566
0.0244511 -0.398578
0.0436506 -0.369054
0.0366052 -0.382923
0.0279618 -0.394633
-0.0044515 -0.39086
-0.0107992 -0.389736
-0.00726224 -0.392358
-0.0171655 -0.386351
0.000977892 -0.389301
-0.00279904 -0.385406
-0.0109782 -0.385234
8.85263e-05 -0.386977
0.0065398 -0.504451
-0.00816717 -0.503099
-0.0055181 -0.521364
-0.00660511 -0.47258
-0.0172391 -0.494091
-0.0133731 -0.530459
0.0106466 -0.524389
0.0208738 -0.513244
0.0153307 -0.489449
0.0179321 -0.434615
0.0066795 -0.456574
0.0136449 -0.464334
-0.00153812 -0.451224
0.0281221 -0.473425
0.0290464 -0.418497
0.0226405 -0.415261
0.0607934 -0.311066
0.0573647 -0.261797
0.0507673 -0.278515
0.0358089 -0.265315
0.0432584 -0.254031
0.0646367 -0.293883
-0.0572556 -0.26328
-0.0633987 -0.319716
-0.052296 -0.286505
-0.0447406 -0.261503
-0.040327 -0.279383
-0.063591 -0.295279
-0.0547715 -0.361105
-0.0555797 -0.366002
-0.0399382 -0.384095
-0.0703673 -0.345463
-0.0530452 -0.378843
-0.0234574 -0.4158
-0.0275879 -0.400753
-0.0546234 -0.35719
-0.0612389 -0.342839
-0.00101102 -0.436964
0.0105324 -0.452488
-0.00209659 -0.430477
0.0222249 -0.477002
0.0212892 -0.467857
-0.00392588 -0.425765
-0.0162764 -0.4093
-0.0138619 -0.418447
0.000288958 -0.447103
-0.0439914 -0.371434
-0.0498689 -0.359349
-0.0502418 -0.360568
-0.0503279 -0.354818
-0.0529153 -0.343022
-0.055761 -0.344918
-0.0516106 -0.359577
-0.0293131 -0.391837
-0.0358155 -0.383423
0.0216512 -0.405012
0.0110907 -0.424184
0.0233502 -0.407797
-0.00245397 -0.444357
0.0349157 -0.390474
0.0351217 -0.384809
0.0228604 -0.401023
0.0561114 -0.364419
0.0661131 -0.351421
0.0640151 -0.347394
0.0634315 -0.365458
0.0716237 -0.340543
0.0628072 -0.33406
0.0621626 -0.343773
0.0477187 -0.374278
0.0426545 -0.388287
0.0579277 -0.344067
0.0557476 -0.346119
0.0528957 -0.356856
0.0552167 -0.330372
0.0548041 -0.342874
0.0450316 -0.369606
0.0451996 -0.370314
0.0596052 -0.344658
0.0584664 -0.332632
0.0588621 -0.319123
0.0601547 -0.316748
0.0498394 -0.297649
0.0379419 -0.273606
0.0572732 -0.319258
0.0554206 -0.318266
0.0547772 -0.319759
0.0528857 -0.317647
0.0412894 -0.283147
-0.0538956 -0.309752
-0.063788 -0.326757
-0.0609236 -0.32819
-0.0585378 -0.329749
-0.0431546 -0.288197
-0.0558495 -0.327115
-0.0547891 -0.331058
-0.0449169 -0.294827
-0.0525853 -0.327169
-0.0244791 -0.398476
-0.0152035 -0.41037
-0.021986 -0.402133
-0.0226778 -0.401666
-0.0120959 -0.414346
-0.0305813 -0.391495
0.0113964 -0.416205
0.000321932 -0.430999
-0.00118118 -0.435756
0.0025064 -0.426477
-0.00854664 -0.442303
-0.0124964 -0.456601
0.0229697 -0.399674
0.0232829 -0.399229
0.0130729 -0.41239
0.0233938 -0.398891
0.00363648 -0.424455
0.0341038 -0.384832
0.0405297 -0.375999
0.0286446 -0.392716
0.0077716 -0.418996
0.0194911 -0.404459
0.0303356 -0.391618
0.0357899 -0.383522
-0.00168299 -0.430817
0.0136028 -0.411937
0.0164788 -0.408668
0.00606243 -0.420644
-0.00331433 -0.425112
0.00655076 -0.436858
-0.00349781 -0.424505
0.0182924 -0.451735
0.0172788 -0.448609
-0.00273814 -0.424766
-0.00412998 -0.424472
0.0096325 -0.475273
0.0170259 -0.504971
0.0206643 -0.490079
0.00671146 -0.519754
0.0190111 -0.5276
0.0305462 -0.501149
-0.00241333 -0.462625
-0.0143354 -0.501406
-0.00184591 -0.509042
-0.00570575 -0.482377
-0.0105293 -0.524699
-0.0136668 -0.446902
-0.0243139 -0.48549
-0.0205128 -0.513829
-0.0408669 -0.423756
-0.0335365 -0.463871
-0.0254338 -0.437656
-0.0312817 -0.499742
-0.0433309 -0.482271
0.0385642 -0.52463
0.0331491 -0.539868
0.0438603 -0.54534
-0.0567043 -0.458857
-0.0660085 -0.421369
0.0546338 -0.550399
0.0409836 -0.51277
0.0500964 -0.41905
0.0366453 -0.415058
0.0375617 -0.448326
0.0313545 -0.499339
0.0433371 -0.481941
-0.0313818 -0.524388
-0.0403791 -0.544032
-0.028538 -0.541937
-0.051694 -0.549183
0.055686 -0.458855
0.0674005 -0.421925
-0.0293893 -0.502776
0.0625012 -0.435046
0.0695722 -0.431055
0.0618702 -0.426083
0.0750318 -0.435495
0.0194323 -0.401068
0.0166425 -0.400722
0.0559278 -0.422265
0.05558 -0.439149
0.0632161 -0.444405
0.0746851 -0.449522
0.0861488 -0.452427
0.0819042 -0.442852
0.0915478 -0.460418
0.0138968 -0.400468
0.012006 -0.400338
0.0680134 -0.453482
0.0912469 -0.49182
0.103042 -0.494735
0.100289 -0.483339
0.104903 -0.505559
0.0101317 -0.400254
0.00884372 -0.400223
0.0952737 -0.471624
0.0798598 -0.487625
0.0840085 -0.498667
0.0927041 -0.512173
0.10168 -0.524659
0.104091 -0.515657
0.0990101 -0.532348
0.0964371 -0.551457
0.101006 -0.546827
0.0828472 -0.507792
0.0825733 -0.540233
0.0880605 -0.549369
0.0919502 -0.544557
0.0831729 -0.552717
0.105167 -0.541165
0.108876 -0.534402
0.0958501 -0.539239
0.077395 -0.530982
0.0742119 -0.535993
0.0723498 -0.543786
0.0705412 -0.553783