<?xml version="1.0"?>
<VTKFile type="UnstructuredGrid">
  <UnstructuredGrid>
  <Piece NumberOfPoints="3487"  NumberOfCells="1698">
    <Points>
      <DataArray type="Float64" NumberOfComponents="3" format="ascii">
39.9735 48.7463 0
60.0269 48.7457 0
40.6342 48.8771 0
41.2965 48.999 0
41.9601 49.1119 0
42.6252 49.2158 0
43.2915 49.3107 0
43.959 49.3966 0
44.6275 49.4735 0
45.2971 49.5414 0
45.9674 49.6002 0
46.6385 49.65 0
47.3101 49.6908 0
47.9823 49.7225 0
48.6547 49.7451 0
49.3275 49.7587 0
50.0003 49.7632 0
50.6732 49.7586 0
51.3459 49.745 0
52.0184 49.7223 0
52.6905 49.6906 0
53.3621 49.6498 0
54.0332 49.6 0
54.7035 49.5411 0
55.373 49.4732 0
56.0416 49.3963 0
56.709 49.3103 0
57.3753 49.2154 0
58.0404 49.1114 0
58.704 48.9985 0
59.3662 48.8765 0
39.9959 49.7622 0
39.9951 49.5082 0
39.991 49.2542 0
39.9838 49.0002 0
19.9325 69.6989 0
39.9935 50.0238 0
39.9876 50.2854 0
39.973 50.6638 0
39.9512 51.0418 0
39.907 51.588 0
39.8479 52.1328 0
39.7358 52.9178 0
39.5927 53.6978 0
39.3311 54.815 0
39.0056 55.9155 0
38.731 56.6991 0
38.4241 57.4707 0
38.0853 58.2289 0
37.7154 58.9724 0
37.1261 60.0197 0
36.4749 61.0296 0
35.7643 61.9987 0
-0.0353219 49.6666 0
17.3225 69.5218 0
14.7579 69.0061 0
12.2824 68.1606 0
9.93823 66.9995 0
7.76547 65.5428 0
11.5406 31.6894 0
0.170295 46.8477 0
0.772539 44.0866 0
1.75959 41.4385 0
0 0 0
0.122618 3.71418 0
0.532768 7.41273 0
1.2243 11.0718 0
2.19242 14.667 0
3.09839 17.3148 0
49.9998 -0.226601 0
5.1116 0 0
10.2232 0 0
15.3348 0 0
100 0 0
57.4016 -0.219526 0
64.8033 -0.193691 0
72.1999 -0.139586 0
88.4598 31.6889 0
99.8774 3.71417 0
99.4673 7.41258 0
98.7758 11.0716 0
97.8077 14.6668 0
96.9017 17.3146 0
100.035 49.6663 0
99.8298 46.8475 0
99.2276 44.0863 0
98.2405 41.4382 0
80.0675 69.6985 0
99.869 52.2767 0
99.3626 54.8431 0
98.5253 57.3212 0
97.3714 59.6689 0
95.921 61.8457 0
60.0043 49.7616 0
77.5566 69.5466 0
75.0844 69.0811 0
72.6902 68.3095 0
70.4115 67.2438 0
68.9236 66.3442 0
67.5192 65.3189 0
66.2092 64.1755 0
65.0033 62.9228 0
64.2358 61.9981 0
63.5251 61.0291 0
62.874 60.0191 0
62.2847 58.9719 0
61.5761 57.4702 0
60.9945 55.9149 0
60.6691 54.8145 0
60.4074 53.6972 0
60.2643 52.9172 0
60.0052 49.5076 0
60.0092 49.2536 0
60.0165 48.9996 0
52.8178 30.0182 0
26.5344 36.8414 0
40.3373 24.1464 0
24.9438 22.4268 0
71.9266 22.4511 0
72.7041 43.895 0
54.8008 23.969 0
15.2962 47.3492 0
38.3596 49.3739 0
23.5826 65.1755 0
7.69102 7.73258 0
91.9505 7.71081 0
29.1547 56.8264 0
37.1802 51.8448 0
28.0874 47.1393 0
29.726 48.1005 0
71.5159 46.6241 0
30.984 48.999 0
70.5164 48.102 0
31.6367 45.5866 0
30.8866 47.0417 0
70.0644 46.6127 0
68.9824 44.9369 0
31.2873 50.094 0
30.8987 51.3168 0
28.1846 49.0958 0
45.3089 41.2216 0
53.8433 40.8427 0
56.0267 40.3916 0
73.1293 47.3788 0
70.1174 49.3425 0
68.3302 42.3666 0
32.3132 42.6968 0
26.1361 45.6218 0
27.6775 44.6264 0
30.3061 43.2548 0
70.4111 42.5656 0
72.6772 45.8901 0
44.8495 43.014 0
51.4305 41.9205 0
55.4093 42.5069 0
32.4479 49.0351 0
68.558 49.5787 0
39.4783 42.0053 0
35.4409 43.3216 0
32.8946 46.4847 0
33.5759 48.2327 0
67.1053 48.1775 0
67.9827 46.415 0
65.0715 42.9848 0
60.4179 41.6428 0
32.3627 51.3534 0
28.2109 50.9544 0
41.7796 37.2278 0
46.8239 37.6323 0
52.0488 39.8052 0
58.6769 39.1748 0
26.5985 51.8508 0
24.294 50.2849 0
74.2323 49.8918 0
71.1702 50.5939 0
69.1485 52.1742 0
67.9231 52.3079 0
59.7608 36.2949 0
66.5009 40.6125 0
34.1096 40.9889 0
36.0279 35.7267 0
23.1804 47.1157 0
21.6463 43.22 0
28.3552 41.7384 0
74.3174 44.65 0
76.6413 48.4986 0
43.0548 43.602 0
46.269 42.8877 0
49.9681 42.9357 0
48.4329 42.7185 0
51.763 43.9732 0
54.0881 44.0889 0
52.9059 44.3845 0
56.2722 43.6377 0
33.8794 49.328 0
33.7788 50.8415 0
66.5416 51.6567 0
66.5983 49.6657 0
41.8325 43.8395 0
40.7035 43.5771 0
38.4615 43.1844 0
37.1431 43.7896 0
35.3467 45.4976 0
34.3259 46.7771 0
66.0234 46.5011 0
65.0181 45.2276 0
63.1889 43.4733 0
61.7033 43.024 0
58.8779 43.4374 0
57.5386 43.7536 0
33.3901 52.0647 0
29.1585 53.6749 0
40.8364 30.9511 0
50.8852 35.9464 0
55.6664 34.2286 0
23.5508 53.3971 0
76.9265 51.8659 0
70.2458 53.2814 0
66.4136 52.898 0
65.4696 35.1114 0
30.9566 34.5298 0
19.4414 47.2367 0
26.131 39.9758 0
71.9983 34.051 0
72.051 41.3262 0
77.4864 45.2531 0
43.1675 45.0441 0
45.8097 44.6803 0
48.7648 44.7712 0
51.4433 45.3997 0
53.7687 45.5154 0
56.2176 45.3359 0
34.9069 50.0391 0
65.0887 50.2554 0
40.8159 45.0191 0
38.3682 45.3616 0
36.0286 47.2461 0
64.1401 46.9908 0
61.649 45.2682 0
58.8238 45.1355 0
36.0627 52.3136 0
34.9107 53.0764 0
33.4946 53.588 0
31.892 55.3797 0
26.0785 58.847 0
22.9826 57.2508 0
32.4031 22.6576 0
47.0379 26.6371 0
63.1334 22.9997 0
19.9765 54.9597 0
80.2009 54.2251 0
75.8131 55.7337 0
71.9495 56.0865 0
69.1012 55.4078 0
65.782 53.9068 0
64.1057 53.7515 0
68.1475 28.9549 0
26.7834 30.0445 0
17.2278 51.6913 0
14.5974 42.3931 0
22.4089 34.0212 0
84.9025 46.8109 0
84.7329 51.9625 0
75.1654 37.8877 0
81.2152 43.8892 0
42.4569 46.3747 0
41.4164 46.183 0
44.9657 46.2201 0
43.6795 46.1371 0
47.7364 46.1613 0
46.3857 46.0939 0
50.62 46.4746 0
49.2721 46.3785 0
53.0506 46.8697 0
51.7631 46.8859 0
55.513 46.482 0
54.2331 46.5741 0
58.0613 46.4358 0
56.7798 46.598 0
36.3722 48.5685 0
36.0245 49.57 0
35.9238 51.084 0
63.3905 52.0178 0
63.833 51.0049 0
63.8898 49.0132 0
63.8379 48.1105 0
40.287 45.9204 0
39.3713 46.0999 0
38.0524 46.7047 0
37.3934 47.2888 0
62.8325 46.8368 0
62.0166 46.5123 0
60.5306 46.0635 0
59.401 46.1193 0
38.054 52.5155 0
36.167 53.8374 0
34.0609 56.6979 0
29.5796 59.7649 0
22.851 61.3095 0
21.7436 15.3863 0
39.969 16.1735 0
48.9013 11.454 0
56.94 16.9028 0
76.6391 15.6218 0
15.6157 57.0051 0
84.5436 57.4401 0
73.4305 59.4285 0
66.5319 55.5666 0
62.4641 53.5229 0
82.9403 7.82609 0
79.7348 22.5749 0
16.3075 7.90809 0
18.3545 22.2922 0
10.7083 46.7079 0
16.5866 35.9571 0
15.5337 30.3657 0
89.4209 49.5827 0
83.2995 31.2084 0
81.5728 39.2498 0
41.9281 47.2761 0
44.2554 47.5508 0
46.8927 47.7012 0
49.5916 47.8648 0
52.2273 47.9446 0
54.795 47.8363 0
57.3567 47.5821 0
37.3894 49.6133 0
37.9153 51.2854 0
62.1913 50.7756 0
62.5819 48.8597 0
39.9716 47.2641 0
38.3965 48.0275 0
38.511 48.7975 0
61.7658 48.4958 0
61.7141 47.6324 0
59.7683 47.3641 0
38.8854 51.0465 0
61.3517 50.9806 0
39.1909 52.8269 0
38.4559 53.3861 0
38.1624 54.4948 0
37.0105 55.2573 0
36.5041 57.0301 0
34.8541 58.5511 0
33.3444 60.4069 0
30.7253 62.5146 0
27.9627 64.6636 0
27.1733 7.80012 0
38.6577 8.31096 0
59.8751 8.5343 0
71.7628 7.87844 0
19.2082 64.6173 0
14.9124 62.881 0
10.7143 60.0912 0
6.26819 57.0455 0
5.98093 51.1142 0
94.2535 52.2108 0
93.3412 57.2643 0
89.3584 60.6104 0
84.6072 63.1249 0
79.5008 64.7998 0
74.6006 63.8366 0
70.2909 62.5588 0
66.852 61.1084 0
65.2342 58.4381 0
62.732 57.114 0
62.087 55.5856 0
61.7934 54.4769 0
61.0781 52.7429 0
93.4967 14.5346 0
89.7942 20.6977 0
86.1029 25.0352 0
6.24969 14.5278 0
13.0154 24.5017 0
9.79046 20.6877 0
5.74798 45.5481 0
5.64853 40.6065 0
12.3099 34.6855 0
94.2427 47.0936 0
88.117 37.0285 0
93.3667 42.368 0
41.0917 48.0417 0
40.4306 47.9154 0
42.1327 48.2334 0
43.4638 48.4321 0
42.7969 48.3417 0
44.7504 48.5152 0
46.0901 48.6419 0
45.4194 48.5875 0
47.441 48.7093 0
48.7855 48.7636 0
48.1129 48.7455 0
50.1336 48.8597 0
51.479 48.8416 0
50.8064 48.8597 0
52.7667 48.8253 0
54.1092 48.7347 0
53.4386 48.789 0
55.3894 48.6427 0
56.7252 48.4798 0
56.0584 48.5702 0
58.0071 48.3176 0
59.3324 48.0828 0
58.6713 48.2091 0
39.3701 51.499 0
39.3184 52.0444 0
60.9506 51.9604 0
60.8989 51.415 0
38.0116 50.3758 0
39.1333 49.5601 0
61.7942 49.9674 0
61.8177 49.3989 0
60.978 49.6036 0
39.5145 48.0947 0
39.1704 48.2134 0
60.9495 48.1715 0
60.4625 48.0267 0
39.4665 50.5892 0
60.5018 50.6067 0
39.4889 49.9494 0
39.4847 50.211 0
60.4836 50.2285 0
60.4794 49.9669 0
39.6404 49.3727 0
39.6291 48.8649 0
39.638 49.1187 0
60.5028 49.3981 0
60.5052 49.1442 0
60.5142 48.8904 0
61.0014 49.035 0
39.2848 48.9835 0
60.9546 50.1723 0
38.9817 50.1367 0
60.8981 47.3079 0
39.0556 47.4433 0
62.634 49.7626 0
37.0414 50.615 0
61.749 51.7889 0
38.789 51.9562 0
58.6384 47.4198 0
56.075 47.7443 0
53.515 47.9283 0
50.9397 47.9609 0
48.2436 47.7687 0
45.5419 47.6337 0
42.9689 47.4677 0
40.8875 47.0844 0
89.1616 44.7392 0
10.9211 40.8697 0
13.2808 16.1624 0
85.8808 16.3697 0
63.1795 55.2567 0
68.9327 58.4219 0
78.9633 59.8139 0
89.309 54.8641 0
11.7545 52.8131 0
19.2144 59.6401 0
66.7077 15.7261 0
30.7639 15.4483 0
26.3363 62.0843 0
32.1478 57.9375 0
35.015 54.6001 0
37.3189 53.0747 0
62.5302 47.9568 0
37.7371 48.6115 0
75.9351 28.6507 0
20.5187 28.5603 0
47.9155 19.2562 0
60.1633 44.8189 0
63.135 45.717 0
37.0493 45.9663 0
39.6867 44.7565 0
65.1458 48.2641 0
65.0322 52.247 0
34.8061 51.5529 0
35.0073 48.5255 0
57.4842 45.4518 0
54.9511 45.2198 0
52.5864 45.8111 0
50.3004 44.9884 0
47.2294 44.554 0
44.3899 44.8065 0
41.9451 45.2816 0
74.3441 42.6556 0
80.2712 48.8378 0
17.9948 43.2966 0
21.304 50.7486 0
34.446 29.6731 0
59.9827 30.2234 0
67.795 53.549 0
73.4089 52.9855 0
54.4611 38.7275 0
46.5093 32.884 0
26.2245 55.3543 0
31.974 52.5765 0
69.7591 39.9958 0
30.9824 40.3655 0
57.593 42.0555 0
63.2431 41.2299 0
66.9012 44.7386 0
33.6442 45.0292 0
37.2365 41.613 0
41.7199 42.3975 0
68.0513 51.0669 0
32.7513 50.1304 0
53.2254 42.958 0
49.636 40.883 0
74.2908 46.6448 0
25.7264 43.1099 0
71.9679 48.1131 0
26.5459 48.1344 0
69.0649 48.0909 0
32.1445 47.9401 0
71.064 45.1351 0
29.6286 46.1438 0
29.8232 50.0576 0
88.1502 34.3715 0
96.8881 38.9572 0
91.2984 35.7273 0
92.2301 38.588 0
96.083 37.7951 0
88.4986 40.762 0
3.112 38.9574 0
11.8772 33.1451 0
10.0066 35.0096 0
3.91719 37.7954 0
8.31802 37.5076 0
11.6933 37.0228 0
11.4026 22.5955 0
10.9901 26.4502 0
9.37742 24.5465 0
11.87 28.932 0
4.15329 19.9056 0
5.35379 22.4309 0
8.24146 22.7828 0
11.5349 18.4239 0
13.1468 20.3327 0
8.01918 17.6098 0
6.97103 20.2972 0
5.20027 17.2152 0
6.69566 24.8823 0
7.79451 26.6707 0
4.22063 14.5976 0
9.76419 15.3465 0
87.9489 22.8671 0
90.4151 24.5508 0
88.5692 26.7153 0
91.551 22.7874 0
95.8468 19.9054 0
94.6463 22.4307 0
87.7115 29.2462 0
[...]
    <PointData>
      <DataArray type="Float64" NumberOfComponents="2" Name="Displacement" format="ascii">
-0.000705996 -0.238248
0.00106546 -0.238837
-0.000158389 -0.237943
0.000226874 -0.237625
0.00043145 -0.237407
0.00057346 -0.237224
0.000659638 -0.237088
0.000714107 -0.236994
0.000734123 -0.236914
0.000732746 -0.236857
0.000710118 -0.236822
0.000672437 -0.236806
0.000619342 -0.236793
0.000556028 -0.236791
0.000483423 -0.2368
0.000405466 -0.236818
0.000322745 -0.236835
0.000239019 -0.236858
0.000156243 -0.23689
7.71009e-05 -0.23693
4.52917e-06 -0.236971
-5.98569e-05 -0.237023
-0.00011282 -0.237087
-0.000152078 -0.237167
-0.000171207 -0.237254
-0.000170963 -0.237367
-0.000144252 -0.237507
-8.85259e-05 -0.237682
3.21183e-05 -0.237874
0.000205272 -0.238131
0.000531155 -0.238485
-0.00406053 -0.237814
-0.00328158 -0.237841
-0.00250756 -0.237895
-0.00170537 -0.238022
-0.0675433 -0.301093
-0.00481697 -0.23782
-0.00557583 -0.237843
-0.00668341 -0.237896
-0.00780227 -0.237976
-0.00942756 -0.238138
-0.0110749 -0.238351
-0.0134943 -0.238752
-0.0159469 -0.239262
-0.0195353 -0.240197
-0.0231507 -0.24136
-0.0257595 -0.24234
-0.0283571 -0.243438
-0.0309293 -0.244661
-0.0334653 -0.245995
-0.0370469 -0.248118
-0.0405105 -0.250455
-0.0438203 -0.252996
-0.0353219 -0.333413
-0.0669641 -0.307085
-0.0657083 -0.312425
-0.0639426 -0.317058
-0.0617718 -0.320994
-0.0593464 -0.324287
0.0442318 -0.208442
-0.0294647 -0.332591
-0.02251 -0.330433
-0.0143813 -0.326719
0 0
-0.0166516 -0.0151017
-0.023533 -0.0250593
-0.0244743 -0.0331004
-0.0203718 -0.0429297
-0.0147402 -0.0524648
-0.000202349 -0.226601
0 0
0 0
0 0
0 0
0.0131538 -0.219526
0.0264744 -0.193691
0.0346716 -0.139586
-0.0437808 -0.20895
0.0167167 -0.0150787
0.0236349 -0.0251466
0.0245928 -0.0332368
0.0205031 -0.043109
0.0148714 -0.0526496
0.0354197 -0.333675
0.0295613 -0.332848
0.0226473 -0.330682
0.0144938 -0.327015
0.0675025 -0.301508
0.0400712 -0.333802
0.0440903 -0.333298
0.0476735 -0.332431
0.0508865 -0.331107
0.0538909 -0.32945
0.00430271 -0.23842
0.0672932 -0.29521
0.0661955 -0.288498
0.0641091 -0.281514
0.0609945 -0.274454
0.0582137 -0.269639
0.0549429 -0.264949
0.0511861 -0.26047
0.0469963 -0.256257
0.0438583 -0.253545
0.0405582 -0.251014
0.0371048 -0.248684
0.0335336 -0.246567
0.0284475 -0.244028
0.0232599 -0.241938
0.0196587 -0.240789
0.0160936 -0.239865
0.0136514 -0.239356
0.00354694 -0.238456
0.00279469 -0.238517
0.00199897 -0.238644
-0.00458708 -0.230879
0.0201882 -0.229872
0.0158735 -0.221644
0.0267935 -0.179625
-0.0270646 -0.190295
-0.00419398 -0.248971
-0.00821567 -0.227293
-0.0190937 -0.28172
-0.00322689 -0.241629
-0.0556582 -0.29083
-0.0176634 -0.0321454
0.0173573 -0.0327577
-0.0292626 -0.269413
-0.0105658 -0.245522
-0.0032012 -0.255108
-0.00445747 -0.25468
0.00177687 -0.253955
-0.00590416 -0.254317
0.00480363 -0.255569
0.00261074 -0.247459
-0.0011088 -0.25103
0.000811984 -0.25202
-0.00359582 -0.247509
-0.00856885 -0.255582
-0.0121532 -0.25819
-0.00820615 -0.259086
0.0040302 -0.235304
-0.0031668 -0.235554
-0.00532234 -0.235516
0.00495775 -0.25792
0.00771845 -0.257252
-0.00904401 -0.242179
0.00864084 -0.241783
-0.00085464 -0.254135
0.00279996 -0.249856
0.00718052 -0.244351
-0.00827646 -0.243968
0.000767204 -0.253796
0.00345961 -0.23583
-0.000901373 -0.235749
-0.00358804 -0.236122
-0.00510187 -0.251957
0.00728609 -0.255022
0.00767207 -0.236585
0.00747496 -0.24028
0.00115609 -0.247386
-0.00252562 -0.248964
0.002934 -0.250495
-0.000732604 -0.24896
-0.00787335 -0.240848
-0.00776611 -0.236919
-0.0113192 -0.255397
-0.0131844 -0.262651
0.00964673 -0.233336
0.00383321 -0.234104
-0.00181659 -0.235191
-0.00859896 -0.235141
-0.0170434 -0.267447
-0.0150641 -0.268633
0.0126415 -0.265462
0.0118487 -0.261353
0.0147293 -0.260064
0.0143352 -0.257744
-0.0118158 -0.233156
-0.0119373 -0.23829
0.0113429 -0.238049
0.0166319 -0.230838
-0.0077644 -0.262596
0.00134044 -0.25289
0.00992444 -0.24234
-0.00114655 -0.252654
0.0114194 -0.266498
0.00413419 -0.236154
0.00261876 -0.235791
0.000212515 -0.235931
0.00124254 -0.235813
-0.000755838 -0.236239
-0.00196199 -0.236384
-0.00124579 -0.236378
-0.00341483 -0.236524
-0.00505931 -0.249923
-0.0091052 -0.251978
0.0117155 -0.254101
0.00637105 -0.251737
0.0045838 -0.236489
0.00540593 -0.236823
0.00687533 -0.23785
0.00650051 -0.239313
0.00383377 -0.242933
0.00106859 -0.245867
-0.00130678 -0.246524
-0.00404685 -0.243602
-0.00679525 -0.239893
-0.00690591 -0.238433
-0.00504869 -0.237153
-0.00402502 -0.236807
-0.0127453 -0.254183
-0.0200531 -0.265282
0.0140411 -0.227929
-0.000993002 -0.233805
-0.00780292 -0.232709
-0.024175 -0.276831
0.0207066 -0.275142
0.0186245 -0.263938
0.0152201 -0.255182
-0.0184812 -0.22996
0.0219201 -0.226346
-0.0128184 -0.270342
0.0133092 -0.238751
-0.0240686 -0.223339
-0.0105425 -0.242078
0.00353548 -0.258717
0.00299666 -0.236479
0.00212666 -0.236205
0.000775591 -0.236281
-0.000354005 -0.236503
-0.00121566 -0.236646
-0.00220298 -0.23688
-0.00637622 -0.248897
0.0071513 -0.24966
0.00388626 -0.23724
0.00411378 -0.239326
0.00067183 -0.243954
-0.000885993 -0.244496
-0.00397519 -0.239874
-0.00332303 -0.237631
-0.0122971 -0.24848
-0.0150026 -0.251781
-0.0171589 -0.255557
-0.0233713 -0.261165
-0.0370398 -0.279332
-0.0349099 -0.284763
0.0251536 -0.203247
0.00498835 -0.228735
-0.0205189 -0.215185
-0.0318215 -0.28805
0.0302611 -0.287504
0.0299278 -0.280055
0.0279032 -0.271649
0.0241083 -0.264098
0.0179355 -0.254667
0.016854 -0.250394
-0.0252553 -0.215822
0.0286248 -0.21035
-0.0270084 -0.287944
-0.00668137 -0.266475
0.0264767 -0.218792
0.0181086 -0.281074
0.0300375 -0.294211
-0.0177582 -0.23331
0.00445461 -0.260926
0.00215247 -0.236872
0.00252124 -0.237187
0.00172275 -0.236525
0.00207441 -0.236613
0.000957155 -0.236503
0.00138324 -0.236474
4.9503e-05 -0.236645
0.000458865 -0.236581
-0.000552544 -0.236817
-0.000224076 -0.236751
-0.00128551 -0.236975
-0.000939706 -0.236858
-0.00182843 -0.237534
-0.00147157 -0.237203
-0.00204401 -0.244724
-0.00464898 -0.246307
-0.00877702 -0.247852
0.0114166 -0.247541
0.00865144 -0.247819
0.00344717 -0.246168
0.0013356 -0.245188
0.00305298 -0.237787
0.00300188 -0.238631
0.0021443 -0.240523
0.000993375 -0.241915
-0.0014968 -0.242452
-0.00216194 -0.241067
-0.00273103 -0.239101
-0.00243208 -0.238168
-0.0124029 -0.243578
-0.0168957 -0.249195
-0.0265586 -0.256621
-0.037891 -0.271124
-0.0456788 -0.289998
0.0157761 -0.131765
0.0134373 -0.216333
0.0008711 -0.22875
-0.00988657 -0.223042
-0.0185298 -0.142206
-0.0405896 -0.302151
0.041706 -0.303558
0.0384662 -0.279195
0.0233288 -0.257915
0.0157487 -0.245925
0.00207426 -0.0580561
-0.023506 -0.165254
-0.00346359 -0.0555451
0.0203043 -0.156267
-0.0237296 -0.296008
0.0203374 -0.228217
0.0351298 -0.197439
0.0301636 -0.303205
-0.0339894 -0.203555
-0.0098667 -0.242434
0.00145375 -0.237155
0.00122639 -0.236786
0.000862305 -0.236703
0.00034869 -0.23677
-0.000153782 -0.236889
-0.000564204 -0.237078
-0.00083395 -0.237487
-0.00420119 -0.243711
-0.00873908 -0.243469
0.00748837 -0.244052
0.00256194 -0.243669
0.00144763 -0.238292
-9.38547e-05 -0.240805
-0.00169563 -0.241038
0.00141376 -0.241939
-0.000326474 -0.241323
-0.000994318 -0.238628
-0.00787398 -0.240956
0.00791259 -0.242126
-0.013237 -0.240416
-0.0150426 -0.242697
-0.0185844 -0.243841
-0.021194 -0.247506
-0.0270503 -0.249642
-0.0323474 -0.255265
-0.0387331 -0.260636
-0.0460575 -0.269468
-0.0532305 -0.278483
0.0118846 -0.139613
0.00451323 -0.210089
-0.0042431 -0.215143
-0.0113603 -0.150343
-0.0555281 -0.301455
-0.0532757 -0.31009
-0.0497437 -0.316967
-0.0464125 -0.32393
-0.0364879 -0.319553
0.0386529 -0.321602
0.0466701 -0.323593
0.0507153 -0.317846
0.0536076 -0.309593
0.055563 -0.298875
0.0514789 -0.285757
0.0464668 -0.272999
0.0411127 -0.262028
0.0320748 -0.256031
0.0273278 -0.247819
0.0222504 -0.245437
0.0186494 -0.244278
0.0131599 -0.241786
0.0165878 -0.0582461
-0.000491724 -0.105474
-0.0186187 -0.154975
-0.0168148 -0.0570652
0.0153656 -0.145755
-0.000147296 -0.102441
-0.0251278 -0.313815
-0.0111937 -0.308485
0.0200477 -0.235417
0.0287512 -0.316016
-0.00720988 -0.25469
0.0165622 -0.305722
0.000696777 -0.237566
0.000632552 -0.237883
0.000812841 -0.237245
0.000889504 -0.236992
0.000863826 -0.237104
0.000893099 -0.236856
0.000799933 -0.236794
0.000853802 -0.23682
0.000656239 -0.236783
0.000473256 -0.236802
0.00056812 -0.236791
0.000274754 -0.236845
7.37775e-05 -0.236901
0.000173919 -0.236872
-0.000100739 -0.236975
-0.000257147 -0.237081
-0.00018341 -0.237025
-0.000350804 -0.237227
-0.000387712 -0.237454
-0.000378914 -0.237332
-0.000308782 -0.237778
-0.000141103 -0.238294
-0.000239554 -0.238009
-0.00918303 -0.239704
-0.0108293 -0.239926
0.0107744 -0.241275
0.00914113 -0.241032
-0.00608281 -0.242844
-0.0035031 -0.240062
0.00512464 -0.242793
0.00360154 -0.242564
0.00391374 -0.240886
0.000192734 -0.238939
-0.000157161 -0.239565
0.000432647 -0.240329
8.62613e-06 -0.239464
-0.00647871 -0.239332
0.0067487 -0.23984
-0.00460786 -0.239227
-0.00537548 -0.239252
0.00565704 -0.23976
0.0048994 -0.239734
-0.00287493 -0.238843
-0.00129501 -0.238911
-0.00211449 -0.238866
0.00324385 -0.239778
0.00250241 -0.239772
0.00174973 -0.239778
0.00237138 -0.240771
-0.00182853 -0.23961
0.00552699 -0.240956
-0.00519713 -0.240522
-0.00101723 -0.239941
0.00111391 -0.239475
0.00484157 -0.244417
-0.00704482 -0.245111
0.0103547 -0.243386
-0.010604 -0.241411
-0.000933368 -0.2379
-0.000709528 -0.237242
-0.000372233 -0.236971
8.99239e-05 -0.236828
0.000616055 -0.236726
0.00107448 -0.236718
0.00131794 -0.236943
0.0016481 -0.237573
0.0189768 -0.290653
-0.00813307 -0.277624
-0.00146735 -0.0958829
-0.000789044 -0.101404
0.0213491 -0.248623
0.033199 -0.266546
0.0429922 -0.293294
0.0403516 -0.311791
-0.0354674 -0.305366
-0.0437681 -0.29705
-0.0204601 -0.194639
0.0217727 -0.182006
-0.0461419 -0.281654
-0.031169 -0.262732
-0.0196263 -0.252672
-0.0142531 -0.245765
0.000546419 -0.242888
-0.00158685 -0.242349
-0.0303436 -0.202012
0.0314632 -0.195094
0.00322116 -0.227782
-0.00417049 -0.238361
-0.00337291 -0.241887
0.00323102 -0.241301
0.00457312 -0.237865
0.00221492 -0.247502
0.0126845 -0.251477
-0.0105893 -0.250649
-0.00254059 -0.24701
-0.00255898 -0.237185
-0.00179407 -0.236686
-0.000696058 -0.236625
8.20201e-05 -0.23638
0.00152499 -0.23619
0.00266752 -0.236282
0.00324109 -0.236823
-0.00628404 -0.247171
0.0167606 -0.27485
-0.00377001 -0.259998
-0.0196779 -0.275896
0.0225836 -0.220415
-0.0153648 -0.227497
0.0178519 -0.258972
0.0202958 -0.270058
-0.00460669 -0.234877
0.00526395 -0.231594
-0.0270928 -0.274326
-0.0150163 -0.25778
-0.0135463 -0.238146
0.0129685 -0.238181
-0.00545223 -0.236291
-0.00984633 -0.237745
-0.00464181 -0.244982
0.00438959 -0.24428
0.00932451 -0.237279
0.00590739 -0.236021
0.010943 -0.256333
-0.00775938 -0.253004
-0.00190857 -0.236084
0.000492907 -0.235392
0.00405319 -0.257835
0.00532973 -0.247856
0.00591638 -0.257796
-0.00706642 -0.259665
0.00382721 -0.253357
-0.00256926 -0.250744
-0.00214327 -0.250158
0.000304345 -0.250943
-0.00949098 -0.258109
-0.0207619 -0.237362
0.00509526 -0.320722
-0.010329 -0.2789
0.00335861 -0.292394
-0.000111015 -0.316512
0.00704146 -0.274315
-0.00498588 -0.32049
0.0300926 -0.22461
0.0148521 -0.262337
0.000281064 -0.31623
0.00145019 -0.285834
0.00703853 -0.255746
0.00724828 -0.123281
0.0174265 -0.143338
0.00949588 -0.118382
0.0282877 -0.170511
-0.0077696 -0.0641875
0.000476989 -0.0784922
0.00307723 -0.101348
-0.00148879 -0.100337
0.00565504 -0.120161
-0.00937722 -0.0777299
-0.00480319 -0.0827406
-0.0135093 -0.062148
0.00950211 -0.0959075
0.0164513 -0.111884
-0.0190143 -0.049813
-0.0101679 -0.0751296
-0.00917624 -0.129591
-0.00970175 -0.120535
-0.0189624 -0.149557
-0.00324253 -0.103263
0.00787374 -0.0643792
-0.000428243 -0.0787432
-0.0305557 -0.177921
-0.0082959 -0.127472
1.29481e-05 -0.104603
0.00897386 -0.0797525
0.0135178 -0.0629795
0.00467407 -0.0843526
0.0190178 -0.0504614
-0.0094739 -0.0962376
-0.0163902 -0.112309
0.00908729 -0.0783061
-0.00704672 -0.192004
0.00567279 -0.206404
0.00646529 -0.176156
0.00280282 -0.225441
0 0
0 0
-0.0059437 -0.0902861
-0.0171037 -0.17522
-0.0127008 -0.205228
0.00763023 -0.184411
-0.00625406 -0.171772
-0.00630926 -0.202979
0.00633079 -0.0820381
0 0
-0.0342308 -0.139086
-0.00353758 -0.224145
0.0141183 -0.196351
0.0176401 -0.162658
-0.0243872 -0.222832
-0.0248509 -0.223799
-0.00873921 -0.245083
-0.03794 -0.204442
0.00557643 -0.264794
-0.0263606 -0.219741
-0.0314936 -0.206488
0.0319189 -0.211585
0.0204284 -0.229866
0.0337828 -0.212489
0.00583501 -0.249762
0.0384324 -0.199898
0.0333609 -0.197927
0.0300549 -0.212689
0.0290325 -0.180875
0.0296053 -0.179788
0.0178285 -0.152264
0.00931882 -0.12659
0.0273393 -0.17742
-0.0297266 -0.185367
-0.0211854 -0.161037
-0.0316839 -0.186383
-0.0126917 -0.134832
-0.028844 -0.18581
-0.00913706 -0.102479
-0.0177882 -0.140598
-0.0099458 -0.0954212
-0.0223376 -0.170074
0.00327339 -0.0323881
0.00142065 -0.0807744
-0.0107356 -0.12088
-0.00359234 -0.227574
-0.00290811 -0.226439
-0.00874668 -0.219604
-0.000249382 -0.228664
-0.0157679 -0.212416
-0.00375089 -0.227747
0.00203628 -0.22808
0.00642763 -0.224568
0.010442 -0.213222
0.00390214 -0.223535
0.018368 -0.202532
0.0089236 -0.224153
0.00635134 -0.0947045
0.008292 -0.0873068
0.0164107 -0.129679
-0.00388579 -0.0314039
0.0214061 -0.15737
0.0076789 -0.113097
-0.00328352 -0.0768142
-0.0253003 -0.221518
-0.0179556 -0.232316
-0.00786223 -0.245361
-0.012098 -0.240511
0.0307485 -0.20769
0.0194712 -0.229395
0.00711138 -0.245835
0.00794255 -0.244657
-0.0281601 -0.213757
-0.0216257 -0.227836
-0.0156794 -0.236141
-0.0191073 -0.231465
-0.0215562 -0.227064
-0.0223634 -0.223797
-0.0255067 -0.218773
-0.0176525 -0.228244
-0.0208416 -0.222672
-0.0283642 -0.208812
-0.0169894 -0.23328
0.0228646 -0.222919
0.019942 -0.226162
0.0193975 -0.228918
0.0158337 -0.233696
0.0131257 -0.23444
0.0178909 -0.232363
-0.0138452 -0.230549
-0.0152773 -0.231885
-0.0142648 -0.234495
-0.0114634 -0.235037
-0.0115836 -0.230672
-0.010039 -0.232864
-0.00809519 -0.23427
-0.00618837 -0.233939
0.00458904 -0.23298
0.00197261 -0.232933
0.00157478 -0.233983
-0.00011568 -0.234677
-0.00301648 -0.23438
0.00197312 -0.234819
0.013206 -0.23236
0.0159461 -0.229027
0.0119785 -0.230952
0.0185524 -0.224806
0.00964069 -0.230123
0.00791006 -0.232394
0.0101682 -0.234823
0.00674424 -0.233732
0.00408874 -0.234728
0.00509958 -0.235549
0.00230873 -0.23533
0.00665324 -0.234527
0.0079381 -0.234833
0.0110162 -0.0166818
0.0108067 -0.0427883
0.00842593 -0.0222704
0.0114055 -0.06287
0 0
0 0
0.013498 -0.0134794
0.0228851 -0.0371069
0.0183769 -0.0463959
0.0207357 -0.0269978
-0.0234203 -0.131674
-0.0282984 -0.143145
-0.0208262 -0.0267507
-0.0186941 -0.0454732
-0.0228865 -0.0366944
-0.0125245 -0.0601438
0.0235185 -0.131103
0.0283144 -0.142383
-0.0135829 -0.0134194
-0.00874363 -0.021887
-0.0115884 -0.041594
-0.0110985 -0.0165172
-0.0267427 -0.193393
-0.0135019 -0.219303
-0.0147573 -0.22282
-0.00950689 -0.225265
-0.0155028 -0.218843
-0.0023527 -0.228335
-0.0212456 -0.206053
-0.0184534 -0.221938
-0.0122548 -0.226927
-0.0249728 -0.203973
-0.0272763 -0.204489
-0.0235187 -0.214361
-0.0289776 -0.194913
-0.0245154 -0.190154
-0.0203238 -0.152825
-0.0265964 -0.177966
-0.024232 -0.1694
0.0221681 -0.158034
0.0245946 -0.168382
0.017249 -0.14326
0.0289646 -0.186079
0.0248949 -0.177748
0.0276376 -0.204904
0.0292402 -0.19628
0.0270389 -0.191912
0.0305301 -0.202901
0.0239311 -0.193136
0.0245515 -0.212386
0.0261068 -0.215541
0.015335 -0.224634
0.0106439 -0.226182
0.00996319 -0.228149
0.00966628 -0.225221
0.00422526 -0.227947
0.00525545 -0.22992
0.0198843 -0.220189
0.0200148 -0.208981
0.0153008 -0.218749
0.0211653 -0.214116
0.0257399 -0.220263
0.0233266 -0.224811
0.0284213 -0.213678
0.0143523 -0.236941
0.0256907 -0.219381
0.0215528 -0.227702
0.0164818 -0.234718
-0.00263559 -0.232515
-0.0063896 -0.231825
-0.00430126 -0.233448
-0.0101508 -0.229758
0.000576064 -0.231554
-0.00165967 -0.229104
-0.00649671 -0.229032
4.90821e-05 -0.230102
0.0033883 -0.299112
-0.00523623 -0.29835
-0.00371508 -0.309154
-0.00423088 -0.280313
-0.010519 -0.293073
-0.00833786 -0.314551
0.00578442 -0.310932
0.0118119 -0.304319
0.00857134 -0.290203
0.0102463 -0.257764
0.00358886 -0.270781
0.0076353 -0.275325
-0.00118155 -0.26771
0.0161031 -0.280679
0.0168004 -0.248199
0.0130784 -0.246372
0.0354343 -0.184925
0.0332713 -0.155992
0.0295248 -0.165802
0.0208233 -0.157798
0.0250871 -0.151307
0.0374964 -0.174978
-0.0332173 -0.156862
-0.0369697 -0.189989
-0.0304387 -0.170509
-0.025977 -0.155721
-0.0235059 -0.166092
-0.0369053 -0.175803
-0.0319731 -0.214483
-0.0324292 -0.217328
-0.023287 -0.228027
-0.0409905 -0.205178
-0.0309196 -0.224825
-0.0135542 -0.246688
-0.0160331 -0.237878
-0.0319075 -0.212185
-0.0357463 -0.203639
-0.000394094 -0.259364
0.00639703 -0.268601
-0.00108272 -0.255611
0.0133379 -0.283079
0.0127305 -0.277736
-0.00219941 -0.252897
-0.00946066 -0.243121
-0.00796528 -0.248377
0.000426323 -0.265288
-0.0257771 -0.22073
-0.0292324 -0.213524
-0.0294104 -0.214233
-0.0295393 -0.210826
-0.0310362 -0.203767
-0.0326227 -0.204889
-0.0301808 -0.213626
-0.0171446 -0.232819
-0.0209777 -0.227856
0.0125635 -0.24045
0.00631405 -0.251744
0.0135292 -0.24202
-0.00167266 -0.263713
0.0203381 -0.231789
0.020497 -0.228546
0.0133005 -0.23815
0.0327368 -0.216399
0.0385448 -0.208716
0.0373375 -0.206342
0.036978 -0.216945
0.0417123 -0.202252
0.0366499 -0.198409
0.0362773 -0.204194
0.0278381 -0.222224
0.0248474 -0.230418
0.0338528 -0.204378
0.0326076 -0.205606
0.0309239 -0.212006
0.0323268 -0.196212
0.0320882 -0.203675
0.0263347 -0.219595
0.0264117 -0.219989
0.0348089 -0.204725
0.0341695 -0.197559
0.0343621 -0.189562
0.0350982 -0.188205
0.0290805 -0.176911
0.0221149 -0.162634
0.033453 -0.18962
0.0323949 -0.189017
0.0320388 -0.189898
0.030966 -0.188634
0.0241688 -0.168148
-0.03147 -0.184028
-0.0372122 -0.194104
-0.035567 -0.194926
-0.034204 -0.195843
-0.0252029 -0.171232
-0.0326709 -0.194271
-0.0320829 -0.196621
-0.0263372 -0.175053
-0.0308427 -0.194299
-0.0143313 -0.236806
-0.00889103 -0.243886
-0.0128944 -0.23903
-0.0133253 -0.2388
-0.00711894 -0.246363
-0.0179573 -0.232732
0.00656567 -0.247166
5.60197e-05 -0.255962
-0.000865812 -0.258712
0.00137821 -0.253354
-0.005149 -0.262705
-0.00757254 -0.271018
0.0133917 -0.237414
0.0136213 -0.237244
0.00760589 -0.245022
0.0136646 -0.236999
0.00206865 -0.252208
0.019942 -0.228646
0.0237525 -0.223457
0.0167885 -0.233411
0.00453038 -0.24903
0.0114206 -0.240401
0.0178304 -0.232837
0.0209999 -0.227969
-0.00104043 -0.256027
0.00797736 -0.244879
0.00969391 -0.242991
0.00357101 -0.250109
-0.00190945 -0.252657
0.00388254 -0.259655
-0.00204701 -0.252361
0.0108083 -0.268452
0.0101777 -0.266665
-0.00162728 -0.252577
-0.0023578 -0.25221
0.0060028 -0.281926
0.0104217 -0.299496
0.012496 -0.290736
0.00440878 -0.308204
0.0116342 -0.312877
0.0182983 -0.297336
-0.00107977 -0.274381
-0.00797548 -0.297297
-0.000630228 -0.301843
-0.00294528 -0.286036
-0.00572074 -0.311115
-0.00771183 -0.265033
-0.013857 -0.287845
-0.0116018 -0.304667
-0.0236767 -0.251232
-0.0193004 -0.275007
-0.0146208 -0.259507
-0.0179496 -0.296308
-0.0250429 -0.285937
0.023057 -0.311214
0.0199342 -0.320164
0.0262016 -0.323428
-0.0329046 -0.272042
-0.0383118 -0.249823
0.0324896 -0.326447
0.0244185 -0.304261
0.0290686 -0.248412
0.0212447 -0.246124
0.0216778 -0.265778
0.0179852 -0.296069
0.0250456 -0.285743
-0.0188709 -0.311026
-0.024172 -0.32264
-0.017244 -0.321367
-0.030781 -0.325715
0.0323068 -0.272048
0.0391451 -0.25014
-0.0176372 -0.29828
0.0366014 -0.259034
0.0407601 -0.256684
0.0362211 -0.253747
0.0439786 -0.259305
0.0112469 -0.238955
0.0096119 -0.238746
0.0327196 -0.251492
0.0325357 -0.261443
0.0370332 -0.26455
0.0437862 -0.267577
0.0505362 -0.269295
0.0480309 -0.263647
0.0537193 -0.274007
0.00800425 -0.238589
0.00689879 -0.238506
0.0398666 -0.269902
0.0535703 -0.292482
0.0604971 -0.294208
0.0588739 -0.287507
0.0615941 -0.300562
0.00580411 -0.238451
0.00505269 -0.238428
0.0559181 -0.28061
0.046883 -0.289993
0.0493386 -0.296479
0.0544565 -0.304415
0.0597211 -0.311736
0.061124 -0.306477
0.0581714 -0.316214
0.0566908 -0.327283
0.0593385 -0.324619
0.0486829 -0.301814
0.0486406 -0.320721