<?xml version="1.0"?>
<VTKFile type="UnstructuredGrid">
  <UnstructuredGrid>
  <Piece NumberOfPoints="3487"  NumberOfCells="1698">
    <Points>
      <DataArray type="Float64" NumberOfComponents="3" format="ascii">
39.9727 48.5573 0
60.0279 48.5562 0
40.6339 48.6882 0
41.2965 48.8104 0
41.9604 48.9234 0
42.6255 49.0275 0
43.2919 49.1225 0
43.9595 49.2084 0
44.6281 49.2854 0
45.2976 49.3533 0
45.9679 49.4121 0
46.639 49.4619 0
47.3106 49.5027 0
47.9827 49.5344 0
48.6551 49.557 0
49.3278 49.5705 0
50.0006 49.575 0
50.6734 49.5705 0
51.346 49.5568 0
52.0185 49.5341 0
52.6905 49.5024 0
53.3621 49.4615 0
54.0331 49.4117 0
54.7034 49.3527 0
55.3729 49.2848 0
56.0415 49.2078 0
56.709 49.1217 0
57.3753 49.0266 0
58.0405 48.9226 0
58.7042 48.8095 0
59.3667 48.6873 0
39.9923 49.5737 0
39.9921 49.3196 0
39.9887 49.0656 0
39.9822 48.8115 0
19.8768 69.4589 0
39.9892 49.8353 0
39.9827 50.0969 0
39.9672 50.4753 0
39.9445 50.8532 0
39.8989 51.3993 0
39.8384 51.9439 0
39.7244 52.7286 0
39.5792 53.5082 0
39.3146 54.6246 0
38.9862 55.7242 0
38.7095 56.507 0
38.4004 57.2777 0
38.0596 58.035 0
37.6875 58.7774 0
37.0953 59.8229 0
36.4414 60.831 0
35.728 61.798 0
-0.0635276 49.399 0
17.2674 69.2768 0
14.7038 68.7567 0
12.2298 67.9072 0
9.8874 66.7429 0
7.71668 65.2834 0
11.5779 31.5227 0
0.147017 46.5808 0
0.755054 43.8213 0
1.74883 41.1762 0
0 0 0
0.10943 3.70226 0
0.514208 7.39306 0
1.20515 11.0459 0
2.17675 14.6334 0
3.08738 17.2737 0
49.9996 -0.407584 0
5.1116 0 0
10.2232 0 0
15.3348 0 0
100 0 0
57.4122 -0.394914 0
64.8246 -0.348633 0
72.2282 -0.251371 0
88.423 31.5218 0
99.8907 3.70228 0
99.486 7.39285 0
98.7951 11.0456 0
97.8235 14.6331 0
96.9129 17.2733 0
100.064 49.3985 0
99.8532 46.5803 0
99.2452 43.8209 0
98.2514 41.1757 0
80.1231 69.4582 0
99.9012 52.0089 0
99.3983 54.5757 0
98.5641 57.0546 0
97.4129 59.4035 0
95.9651 61.5818 0
60.0081 49.5726 0
77.612 69.3114 0
75.139 68.8515 0
72.743 68.0856 0
70.4618 67.0256 0
68.9716 66.13 0
67.5645 65.1085 0
66.2514 63.9688 0
65.0421 62.7194 0
64.272 61.797 0
63.5587 60.83 0
62.9048 59.8219 0
62.3126 58.7764 0
61.5998 57.2768 0
61.014 55.7232 0
60.6856 54.6237 0
60.421 53.5071 0
60.2759 52.7276 0
60.0083 49.3185 0
60.0118 49.0645 0
60.0184 48.8104 0
52.8141 29.8344 0
26.551 36.6582 0
40.3501 23.9696 0
24.9657 22.2831 0
71.9046 22.2989 0
72.7007 43.6969 0
54.7942 23.7877 0
15.2808 47.1241 0
38.3567 49.1822 0
23.5368 64.9439 0
7.67704 7.70718 0
91.9643 7.68492 0
29.1305 56.6123 0
37.1713 51.65 0
28.0847 46.9363 0
29.7222 47.898 0
71.5175 46.4221 0
30.9789 48.7968 0
70.5205 47.8988 0
31.6386 45.3899 0
30.8855 46.8422 0
70.0653 46.4124 0
68.9796 44.7401 0
31.28 49.8909 0
30.8885 51.1116 0
28.1777 48.8897 0
45.3121 41.0346 0
53.8408 40.6555 0
56.0225 40.2045 0
73.1335 47.1736 0
70.124 49.138 0
68.3229 42.174 0
32.3202 42.5046 0
26.1354 45.4195 0
27.6797 44.4276 0
30.3118 43.0605 0
70.4045 42.3715 0
72.678 45.6882 0
44.8522 42.8267 0
51.4298 41.7332 0
55.4064 42.3193 0
32.4435 48.8349 0
68.5642 49.3761 0
39.4844 41.8174 0
35.4469 43.1307 0
32.8953 46.2882 0
33.5736 48.0349 0
67.1079 47.9785 0
67.9823 46.2171 0
65.0652 42.7934 0
60.4117 41.4546 0
32.3532 51.1505 0
28.1999 50.7454 0
41.7874 37.0423 0
46.827 37.4462 0
52.0473 39.6183 0
58.67 38.988 0
26.5844 51.638 0
24.2815 50.0709 0
74.2428 49.6805 0
71.1801 50.3861 0
69.1608 51.9675 0
67.9351 52.1031 0
59.7513 36.1095 0
66.4913 40.423 0
34.1188 40.7997 0
36.0414 35.5431 0
23.174 46.9064 0
21.6474 43.0184 0
28.3632 41.5455 0
74.3165 44.4489 0
76.6507 48.2863 0
43.058 43.4144 0
46.271 42.7004 0
49.9683 42.7482 0
48.4339 42.5312 0
51.7625 43.7855 0
54.0866 43.9012 0
52.905 44.1968 0
56.2696 43.4498 0
33.875 49.1295 0
33.771 50.6414 0
66.5515 51.4549 0
66.6038 49.4657 0
41.8361 43.6517 0
40.7077 43.389 0
38.467 42.9955 0
37.1482 43.5995 0
35.3497 45.3046 0
34.3265 46.5818 0
66.0225 46.3053 0
65.0149 45.0341 0
63.1835 43.2828 0
61.6979 42.8347 0
58.874 43.2491 0
57.5354 43.5655 0
33.3794 51.8629 0
29.1418 53.4639 0
40.8478 30.7696 0
50.8844 35.7604 0
55.6601 34.0435 0
23.5309 53.1767 0
76.9435 51.6467 0
70.2613 53.0716 0
66.4263 52.6954 0
65.4546 34.9284 0
30.9744 34.3495 0
19.431 47.021 0
26.1418 39.7856 0
71.9786 33.873 0
72.0424 41.1336 0
77.4893 45.0469 0
43.1698 44.8563 0
45.8113 44.4927 0
48.7655 44.5835 0
51.4431 45.2119 0
53.7678 45.3275 0
56.2159 45.1478 0
34.9014 49.8415 0
65.0948 50.0572 0
40.8189 44.8308 0
38.3714 45.1716 0
36.0289 47.0524 0
64.1396 46.7966 0
61.6459 45.0778 0
58.8213 44.9468 0
36.0523 52.1164 0
34.898 52.8765 0
33.4803 53.385 0
31.8725 55.1723 0
26.0479 58.6247 0
22.9539 57.024 0
32.4235 22.4952 0
47.042 26.4548 0
63.1168 22.8279 0
19.9504 54.73 0
80.2257 53.9959 0
75.8378 55.5107 0
71.9727 55.8705 0
69.1212 55.198 0
65.797 53.7046 0
64.1198 53.5528 0
68.1269 28.7828 0
26.8069 29.8767 0
17.2058 51.4615 0
14.5923 42.1801 0
22.4307 33.8467 0
84.9171 46.5863 0
84.7573 51.7276 0
75.1508 37.7018 0
81.2187 43.6809 0
42.4585 46.1866 0
41.4182 45.9947 0
44.9671 46.0322 0
43.681 45.9492 0
47.7371 45.9735 0
46.3868 45.906 0
50.6201 46.2866 0
49.2724 46.1906 0
53.0502 46.6816 0
51.763 46.6979 0
55.5121 46.2939 0
54.2325 46.3859 0
58.0599 46.2472 0
56.7787 46.4097 0
36.3703 48.3742 0
36.0204 49.3745 0
35.9163 50.8873 0
63.4002 51.8214 0
63.8404 50.8083 0
63.8929 48.8178 0
63.8393 47.9158 0
40.2893 45.7316 0
39.3736 45.9105 0
38.0539 46.5138 0
37.394 47.0968 0
62.8315 46.6444 0
62.015 46.3209 0
60.5286 45.8737 0
59.3992 45.9303 0
38.0434 52.3223 0
36.1528 53.6397 0
34.0388 56.4941 0
29.5482 59.5494 0
22.8134 61.0785 0
21.7565 15.2806 0
39.9798 16.0006 0
48.902 11.2713 0
56.9322 16.7246 0
76.6241 15.5078 0
15.5825 56.7639 0
84.5777 57.1978 0
73.4623 59.2064 0
66.5514 55.3618 0
62.4774 53.3278 0
82.9418 7.77963 0
79.7155 22.4427 0
16.3049 7.86369 0
18.3713 22.1673 0
10.6894 46.471 0
16.6035 35.7748 0
15.563 30.2079 0
89.4452 49.3402 0
83.2712 31.0458 0
81.5645 39.0563 0
41.9292 47.0879 0
44.2563 47.3627 0
46.8934 47.5132 0
49.5919 47.6767 0
52.2272 47.7565 0
54.7946 47.6481 0
57.3562 47.3936 0
37.3857 49.4199 0
37.9078 51.0922 0
62.1978 50.582 0
62.5843 48.6663 0
39.9726 47.075 0
38.3962 47.8364 0
38.5094 48.6062 0
61.7671 48.3038 0
61.714 47.4409 0
59.7676 47.1748 0
38.8786 50.8554 0
61.3586 50.7886 0
39.1796 52.6363 0
38.4432 53.1937 0
38.1468 54.3015 0
36.9927 55.061 0
36.4816 56.8321 0
34.8272 58.3486 0
33.3123 60.2 0
30.6873 62.3005 0
27.9188 64.4421 0
27.1826 7.68795 0
38.6611 8.14289 0
59.8719 8.36225 0
71.754 7.75773 0
19.1625 64.377 0
14.8687 62.6335 0
10.6736 59.8378 0
6.23043 56.7862 0
5.95159 50.8582 0
94.2847 51.9531 0
93.3792 57.0053 0
89.3999 60.3564 0
84.6512 62.8778 0
79.5465 64.5616 0
74.6431 63.6092 0
70.3292 62.3419 0
66.886 60.9004 0
65.2608 58.2349 0
62.7548 56.9175 0
62.1056 55.3911 0
61.8091 54.2832 0
61.0893 52.5512 0
93.5094 14.4886 0
89.7931 20.614 0
86.0872 24.9117 0
6.23677 14.4828 0
13.0285 24.3857 0
9.79109 20.6065 0
5.72818 45.2965 0
5.6403 40.359 0
12.3268 34.4969 0
94.2655 46.8403 0
88.1106 36.8245 0
93.3795 42.1228 0
41.0921 47.8532 0
40.431 47.7266 0
42.1332 48.045 0
43.4644 48.2439 0
42.7975 48.1535 0
44.7511 48.3271 0
46.0907 48.4538 0
45.4201 48.3995 0
47.4415 48.5213 0
48.7859 48.5756 0
48.1133 48.5575 0
50.1338 48.6716 0
51.4791 48.6534 0
50.8066 48.6716 0
52.7667 48.6371 0
54.1091 48.5464 0
53.4385 48.6008 0
55.3891 48.4543 0
56.725 48.2913 0
56.0581 48.3818 0
58.007 48.1288 0
59.3325 47.8937 0
58.6713 48.0202 0
39.3622 51.309 0
39.3092 51.8543 0
60.9598 51.7692 0
60.9068 51.2239 0
38.0063 50.1832 0
39.1301 49.3697 0
61.7987 49.7748 0
61.8209 49.2064 0
60.9814 49.4126 0
39.5145 47.9051 0
39.17 48.0233 0
60.9501 47.9808 0
60.4627 47.8367 0
39.4609 50.3994 0
60.5076 50.4165 0
39.4848 49.7597 0
39.4799 50.0213 0
60.4886 50.0384 0
60.4838 49.7768 0
39.6378 49.1833 0
39.6279 48.6754 0
39.636 48.9293 0
60.5057 49.208 0
60.5075 48.954 0
60.5158 48.7002 0
61.0036 48.844 0
39.2831 48.7935 0
60.9594 49.9812 0
38.9772 49.946 0
60.8975 47.1175 0
39.0563 47.2533 0
62.6382 49.5687 0
37.0353 50.4205 0
61.7578 51.5959 0
38.7799 51.7648 0
58.6379 47.2309 0
56.0746 47.5559 0
53.5147 47.7401 0
50.9398 47.7727 0
48.244 47.5807 0
45.5427 47.4457 0
42.9698 47.2795 0
40.8886 46.8958 0
89.1766 44.5065 0
10.9151 40.6473 0
13.28 16.086 0
85.8797 16.2889 0
63.1974 55.0595 0
68.9602 58.2101 0
78.9986 59.5802 0
89.3418 54.6147 0
11.7258 52.569 0
19.1785 59.4033 0
66.6913 15.5703 0
30.7814 15.3025 0
26.2982 61.8602 0
32.1219 57.7288 0
34.9985 54.3996 0
37.3069 52.8798 0
62.5309 47.764 0
37.7356 48.4192 0
75.9101 28.4893 0
20.5447 28.4044 0
47.9181 19.0744 0
60.1601 44.6297 0
63.1325 45.5249 0
37.0517 45.7747 0
39.6903 44.5676 0
65.1478 48.0676 0
65.0429 52.0474 0
34.7972 51.3539 0
35.0049 48.3294 0
57.4823 45.2635 0
54.9497 45.0319 0
52.5859 45.6231 0
50.3004 44.8006 0
47.2306 44.3664 0
44.392 44.6188 0
41.9476 45.0936 0
74.339 42.4588 0
80.2849 48.6186 0
17.9919 43.089 0
21.2879 50.5287 0
34.4644 29.4974 0
59.9702 30.0422 0
67.81 53.3433 0
73.4257 52.7706 0
54.4574 38.5408 0
46.5135 32.6997 0
26.2021 55.136 0
31.9614 52.3717 0
69.7481 39.8063 0
30.9929 40.176 0
57.5887 41.8679 0
63.2352 41.041 0
66.8976 44.5439 0
33.6476 44.8351 0
37.244 41.4245 0
41.7246 42.21 0
68.0605 50.8632 0
32.7447 49.9294 0
53.2239 42.7705 0
49.6364 40.696 0
74.2942 46.4395 0
25.7307 42.9126 0
71.9729 47.908 0
26.54 47.9277 0
69.0683 47.8896 0
32.1422 47.7408 0
71.0624 44.9361 0
29.6287 45.9442 0
29.8152 49.8524 0
88.1327 34.1813 0
96.8913 38.6998 0
91.2891 35.5034 0
92.232 38.3534 0
96.0819 37.5411 0
88.5038 40.5423 0
3.10895 38.7002 0
11.9025 32.9653 0
10.0195 34.799 0
3.91845 37.5416 0
8.32008 37.2783 0
11.6996 36.8179 0
11.4091 22.4976 0
11.005 26.3364 0
9.386 24.4527 0
11.8937 28.7963 0
4.148 19.8552 0
5.35523 22.3691 0
8.24486 22.7027 0
11.5343 18.3441 0
13.1519 20.237 0
8.01233 17.5483 0
6.96804 20.2319 0
5.19018 17.1662 0
6.70446 24.8067 0
7.80898 26.5823 0
4.206 14.5584 0
9.75655 15.2869 0
87.9409 22.764 0
90.4063 24.4553 0
88.553 26.5965 0
91.5475 22.7057 0
95.8522 19.8548 0
94.6449 22.3687 0
87.6859 29.1045 0
85.986 20.6016 0
[...]
    <PointData>
      <DataArray type="Float64" NumberOfComponents="2" Name="Displacement" format="ascii">
-0.00147265 -0.427228
0.00213158 -0.428284
-0.000422901 -0.42677
0.000309517 -0.426246
0.000696279 -0.425885
0.000964727 -0.425579
0.00113018 -0.425353
0.00123684 -0.425198
0.00128035 -0.425064
0.00128446 -0.424971
0.00124992 -0.424916
0.00118779 -0.424893
0.00109763 -0.424872
0.000988787 -0.424872
0.000863084 -0.42489
0.000727648 -0.424924
0.00058358 -0.424954
0.000437723 -0.424996
0.000293642 -0.425052
0.000156258 -0.425122
3.08666e-05 -0.425191
-7.94555e-05 -0.425279
-0.000168961 -0.425389
-0.000233247 -0.425526
-0.00026073 -0.425673
-0.000252356 -0.425864
-0.000195961 -0.426103
-8.58913e-05 -0.4264
0.000145976 -0.426718
0.000477255 -0.427148
0.00109856 -0.42774
-0.00768711 -0.426334
-0.00624921 -0.4264
-0.00481953 -0.426518
-0.00333504 -0.426778
-0.123159 -0.541093
-0.00907756 -0.426333
-0.0104709 -0.426363
-0.0125025 -0.426446
-0.0145525 -0.42658
-0.0175255 -0.426858
-0.0205352 -0.427233
-0.0249505 -0.427946
-0.0294212 -0.428859
-0.0359563 -0.430542
-0.0425339 -0.432641
-0.0472767 -0.434412
-0.051997 -0.436398
-0.0566694 -0.438612
-0.0612746 -0.441028
-0.0677763 -0.444873
-0.074062 -0.449108
-0.0800674 -0.453711
-0.0635276 -0.601003
-0.122111 -0.552047
-0.119823 -0.561839
-0.116591 -0.570364
-0.112603 -0.577637
-0.108128 -0.583748
0.0815079 -0.375131
-0.0527433 -0.599545
-0.039995 -0.595659
-0.0251468 -0.588954
0 0
-0.0298394 -0.0270154
-0.0420934 -0.0447238
-0.0436192 -0.0589886
-0.0360415 -0.0765105
-0.0257495 -0.0935793
-0.000355939 -0.407584
0 0
0 0
0 0
0 0
0.0237539 -0.394914
0.0478414 -0.348633
0.0629819 -0.251371
-0.0806359 -0.376056
0.0299595 -0.0269759
0.0422807 -0.0448833
0.0438384 -0.0592363
0.036285 -0.076835
0.0259937 -0.0939134
0.0637156 -0.601472
0.0529297 -0.600003
0.0402533 -0.596103
0.0253622 -0.589483
0.123099 -0.541835
0.0723157 -0.601652
0.0797754 -0.600674
0.0864427 -0.599012
0.0924301 -0.596507
0.0980229 -0.593378
0.00813197 -0.427419
0.122708 -0.530347
0.120703 -0.518127
0.116905 -0.505431
0.111244 -0.49261
0.106195 -0.483872
0.100258 -0.475366
0.0934419 -0.467245
0.0858404 -0.459607
0.0801473 -0.454692
0.0741592 -0.450107
0.0678917 -0.445885
0.0614085 -0.44205
0.0521708 -0.437455
0.0427409 -0.433675
0.0361888 -0.4316
0.0296964 -0.429939
0.0252436 -0.429027
0.00673706 -0.427502
0.00534745 -0.427633
0.00387275 -0.427895
-0.00828689 -0.414722
0.0367257 -0.413
0.0286974 -0.398494
0.0486805 -0.323362
-0.0490778 -0.342509
-0.00752458 -0.447112
-0.014832 -0.408572
-0.0344611 -0.50682
-0.00612647 -0.433323
-0.101492 -0.522392
-0.0316419 -0.0575453
0.0311009 -0.0586537
-0.0534999 -0.483598
-0.0195545 -0.440304
-0.005968 -0.458055
-0.00829064 -0.457185
0.00338602 -0.455965
-0.0109508 -0.456456
0.00892445 -0.458791
0.00457192 -0.444155
-0.0022022 -0.450582
0.00165268 -0.452412
-0.00636984 -0.444282
-0.015817 -0.4587
-0.0223486 -0.46339
-0.0150955 -0.465175
0.00723179 -0.422242
-0.00567645 -0.422702
-0.00955811 -0.422635
0.00915042 -0.46317
0.0142478 -0.461779
-0.0162977 -0.434739
0.0155624 -0.433997
-0.00164588 -0.456438
0.00498183 -0.448675
0.0129237 -0.438681
-0.0149265 -0.438036
0.00152112 -0.455752
0.0061803 -0.423147
-0.00160664 -0.423041
-0.00640739 -0.423676
-0.00950869 -0.452143
0.013486 -0.457687
0.0137793 -0.424504
0.0134142 -0.431169
0.0019051 -0.443949
-0.00481972 -0.446724
0.00556357 -0.449503
-0.00113572 -0.446816
-0.0141369 -0.432211
-0.0139477 -0.425112
-0.0208531 -0.458296
-0.0241732 -0.471559
0.0174193 -0.418844
0.00691231 -0.420196
-0.00325974 -0.422082
-0.0154912 -0.422002
-0.0311694 -0.480266
-0.0274956 -0.482561
0.0231301 -0.476766
0.0217591 -0.469191
0.0270537 -0.466746
0.0263577 -0.462511
-0.0213499 -0.418566
-0.0215577 -0.427742
0.0204768 -0.427281
0.030121 -0.414505
-0.0141554 -0.471817
0.00248479 -0.454509
0.0179603 -0.435191
-0.00200603 -0.45381
0.0208305 -0.478799
0.00737188 -0.423698
0.00468074 -0.423091
0.000386167 -0.423354
0.0022252 -0.423144
-0.00133535 -0.423892
-0.00347753 -0.424135
-0.00220198 -0.424131
-0.00607286 -0.424367
-0.00944831 -0.448417
-0.0168343 -0.452091
0.0216008 -0.455905
0.0118436 -0.451689
0.00816919 -0.424278
0.00965338 -0.424874
0.0123188 -0.42674
0.0116333 -0.429369
0.0067738 -0.435873
0.00173428 -0.441154
-0.00216574 -0.44235
-0.0071587 -0.43709
-0.0121661 -0.430424
-0.0123697 -0.42779
-0.00900411 -0.42547
-0.00715914 -0.424855
-0.0234727 -0.456054
-0.0367177 -0.476205
0.0254155 -0.409442
-0.00178818 -0.419715
-0.0140967 -0.417825
-0.044084 -0.497313
0.0377528 -0.494321
0.0341342 -0.473756
0.0279988 -0.457822
-0.0334868 -0.412986
0.0398036 -0.40662
-0.0232253 -0.486017
0.0241808 -0.428883
-0.0437688 -0.401325
-0.0190885 -0.434745
0.00643556 -0.464902
0.0053033 -0.424258
0.00377708 -0.42381
0.00138407 -0.423964
-0.0006143 -0.424358
-0.00213279 -0.424598
-0.00387221 -0.424985
-0.0118645 -0.446515
0.0132861 -0.447878
0.0068818 -0.425581
0.00728144 -0.429313
0.00100358 -0.437639
-0.00139034 -0.438619
-0.00702526 -0.430296
-0.00585794 -0.426281
-0.0226988 -0.445668
-0.0276176 -0.451644
-0.0315262 -0.458495
-0.0428206 -0.468636
-0.0676045 -0.501594
-0.0636463 -0.511569
0.0455403 -0.365689
0.00902242 -0.411036
-0.0370956 -0.38701
-0.0579134 -0.517714
0.0550681 -0.516749
0.0546034 -0.503037
0.0510092 -0.487684
0.0441533 -0.473956
0.0329633 -0.456849
0.0310199 -0.449084
-0.0458344 -0.387982
0.0521076 -0.378228
-0.0490089 -0.517776
-0.0118061 -0.479557
0.0483351 -0.393321
0.0326628 -0.505682
0.0544601 -0.529191
-0.0323265 -0.419208
0.0079707 -0.469168
0.00375881 -0.424934
0.00440591 -0.425472
0.00303281 -0.424366
0.00364298 -0.424501
0.00169637 -0.424352
0.00244403 -0.424291
0.000100591 -0.424612
0.000820055 -0.424497
-0.000950975 -0.424908
-0.000377412 -0.424797
-0.00222962 -0.425162
-0.00162917 -0.424971
-0.00315648 -0.426103
-0.00254013 -0.425546
-0.00395676 -0.438982
-0.00871817 -0.441822
-0.0162647 -0.444572
0.0211055 -0.443955
0.0160432 -0.444498
0.0065251 -0.441573
0.00266561 -0.439829
0.00535702 -0.426527
0.0052578 -0.428029
0.00369198 -0.431421
0.00159139 -0.433925
-0.00250557 -0.434903
-0.00372037 -0.432403
-0.00476154 -0.42887
-0.00422729 -0.427208
-0.0229277 -0.436743
-0.0310934 -0.446918
-0.0486638 -0.460337
-0.0692188 -0.486627
-0.0832862 -0.520956
0.0286355 -0.237394
0.0241685 -0.389241
0.00155853 -0.411476
-0.0177776 -0.401205
-0.0335518 -0.256227
-0.073781 -0.543365
0.0758307 -0.545896
0.0702237 -0.501309
0.0427802 -0.462702
0.0290324 -0.440965
0.0035953 -0.10451
-0.0428587 -0.297462
-0.00608925 -0.0999481
0.0371145 -0.281219
-0.0426462 -0.532928
0.0373057 -0.410484
0.0644535 -0.35521
0.0544344 -0.5458
-0.0623146 -0.366161
-0.0181273 -0.435951
0.00248551 -0.425422
0.00213196 -0.424823
0.00151833 -0.424706
0.000626355 -0.424835
-0.000248353 -0.425043
-0.000951942 -0.42536
-0.00138293 -0.426039
-0.00790766 -0.437099
-0.0162265 -0.436591
0.0139382 -0.437655
0.0049086 -0.437033
0.00243243 -0.427381
-0.000387761 -0.431877
-0.00331592 -0.432272
0.0028037 -0.433904
-0.000376108 -0.432819
-0.00160928 -0.427986
-0.0146609 -0.432022
0.0147303 -0.434139
-0.0244716 -0.430977
-0.0277536 -0.435115
-0.0342061 -0.437168
-0.0389421 -0.443812
-0.0495956 -0.447659
-0.0592092 -0.457842
-0.070802 -0.467568
-0.0840896 -0.483577
-0.0971093 -0.499936
0.0212094 -0.251784
0.00791513 -0.378158
-0.00744798 -0.38719
-0.0202186 -0.271059
-0.101206 -0.541786
-0.0970159 -0.557634
-0.0904308 -0.570357
-0.0841637 -0.583289
-0.065824 -0.575542
0.069817 -0.579218
0.0846609 -0.582643
0.0922306 -0.571934
0.0976452 -0.556697
0.101298 -0.537053
0.0939085 -0.513157
0.0848345 -0.489975
0.0751362 -0.470073
0.0587222 -0.459219
0.0501202 -0.444334
0.0408885 -0.440032
0.0343334 -0.437947
0.0243323 -0.433457
0.0293419 -0.104223
-0.00160388 -0.18917
-0.0342699 -0.278547
-0.0297379 -0.102089
0.0284223 -0.261842
0.000479914 -0.183681
-0.044928 -0.565379
-0.0194242 -0.555955
0.0369551 -0.423968
0.0515871 -0.569291
-0.0136369 -0.458764
0.0292905 -0.55086
0.00110323 -0.426119
0.00095916 -0.426641
0.00135243 -0.425595
0.00152425 -0.425181
0.00146309 -0.425364
0.00155235 -0.42496
0.00140283 -0.424864
0.00149126 -0.424904
0.00115925 -0.424853
0.000843317 -0.424893
0.00100751 -0.424872
0.000498786 -0.424972
0.00014966 -0.425069
0.000323537 -0.42502
-0.000151783 -0.425195
-0.000418117 -0.425375
-0.000293332 -0.425281
-0.000569377 -0.425621
-0.000611371 -0.426004
-0.00060885 -0.425799
-0.000434281 -0.426542
-7.39151e-05 -0.427388
-0.00028534 -0.426926
-0.0170679 -0.42972
-0.0200769 -0.430107
0.0199767 -0.432548
0.0169898 -0.432124
-0.0113624 -0.435491
-0.00663888 -0.430465
0.00961012 -0.435398
0.00681387 -0.435005
0.00739336 -0.431944
0.000147785 -0.428497
-0.000494836 -0.429621
0.00100097 -0.430994
0.000220647 -0.429437
-0.0121157 -0.429077
0.0126146 -0.429982
-0.00868033 -0.428918
-0.0100916 -0.428949
0.0106111 -0.429854
0.00921785 -0.42982
-0.00548875 -0.42825
-0.00256593 -0.428413
-0.00408418 -0.428311
0.00616509 -0.429936
0.0047952 -0.429941
0.0034028 -0.429967
0.00455381 -0.431762
-0.00355478 -0.429671
0.0103611 -0.432044
-0.00975243 -0.431273
-0.00163975 -0.430329
0.00181883 -0.429493
0.00908366 -0.43836
-0.0131113 -0.439605
0.0191936 -0.436401
-0.0196547 -0.432816
-0.00152445 -0.426731
-0.00119041 -0.425633
-0.000625683 -0.425181
0.000175623 -0.424939
0.00109211 -0.424753
0.00188115 -0.424719
0.00226889 -0.425075
0.00281074 -0.426129
0.0339759 -0.523341
-0.0141879 -0.500034
-0.00220061 -0.172278
-0.00184112 -0.18227
0.03923 -0.445824
0.0607128 -0.478318
0.0783543 -0.527009
0.073151 -0.561118
-0.0642178 -0.549522
-0.0797129 -0.533896
-0.0368358 -0.350441
0.0392353 -0.327803
-0.0841895 -0.505733
-0.0570256 -0.471414
-0.0360518 -0.453215
-0.0262924 -0.440704
0.00122209 -0.435649
-0.00312067 -0.43466
-0.0553015 -0.363375
0.0574908 -0.351007
0.00580894 -0.4096
-0.00738805 -0.427587
-0.00592592 -0.433932
0.00567128 -0.43287
0.00812401 -0.426703
0.00426692 -0.444037
0.0233946 -0.451104
-0.0195599 -0.449643
-0.00485828 -0.443147
-0.00449237 -0.425505
-0.0031568 -0.424657
-0.0012143 -0.424569
0.000155382 -0.424141
0.00271354 -0.423795
0.00473023 -0.423929
0.00572438 -0.424849
-0.0113728 -0.443984
0.0304323 -0.494075
-0.00668145 -0.467575
-0.0358053 -0.495818
0.0409535 -0.396133
-0.0278071 -0.408707
0.0327743 -0.464696
0.0371072 -0.484942
-0.00828996 -0.421542
0.00951841 -0.415883
-0.0494797 -0.492618
-0.0275908 -0.462582
-0.0245287 -0.427621
0.0234716 -0.427647
-0.009762 -0.423971
-0.0177317 -0.426651
-0.00825537 -0.439655
0.00779691 -0.43837
0.016786 -0.425794
0.0105841 -0.423477
0.0201664 -0.459998
-0.0143629 -0.453993
-0.00339808 -0.423617
0.000889171 -0.422421
0.00747264 -0.463095
0.00963782 -0.445209
0.0109245 -0.462873
-0.0129791 -0.466321
0.00716801 -0.454741
-0.00488356 -0.449994
-0.0037532 -0.449139
0.000394707 -0.450503
-0.0174725 -0.463318
-0.0382928 -0.427559
0.00824341 -0.578126
-0.0196737 -0.502772
0.0052352 -0.526965
-0.00122256 -0.570534
0.0122565 -0.494019
-0.00803589 -0.577711
0.0553102 -0.404441
0.0277978 -0.472914
0.00154037 -0.570028
0.00350941 -0.515183
0.0133543 -0.460706
0.0137993 -0.221252
0.0323666 -0.257152
0.0180796 -0.212167
0.0520521 -0.306202
-0.0130596 -0.114605
0.00191537 -0.140281
0.00647425 -0.181518
-0.00210647 -0.180106
0.0107709 -0.215861
-0.0162257 -0.139226
-0.00779912 -0.148078
-0.0235977 -0.111081
0.0182968 -0.171563
0.030916 -0.200264
-0.0336463 -0.0889643
-0.017814 -0.134723
-0.0172436 -0.232667
-0.018427 -0.216062
-0.0351056 -0.268408
-0.00675169 -0.184981
0.0132555 -0.114952
-0.00181965 -0.140734
-0.0561453 -0.319688
-0.0155043 -0.229089
-0.000526391 -0.187828
0.0155185 -0.142883
0.0236245 -0.112583
0.00758372 -0.150989
0.0336624 -0.090136
-0.018238 -0.172159
-0.030798 -0.201031
0.0158851 -0.140466
-0.0124087 -0.345811
0.0104788 -0.371517
0.0120872 -0.317401
0.00514709 -0.405554
0 0
0 0
-0.0105817 -0.163022
-0.0306735 -0.315682
-0.0227231 -0.369459
0.0134568 -0.332218
-0.011711 -0.309552
-0.0116305 -0.365386
0.0113264 -0.148163
0 0
-0.0621737 -0.250493
-0.00647122 -0.403236
0.0252748 -0.35358
0.0316752 -0.293137
-0.0446448 -0.400687
-0.045617 -0.402647
-0.0162168 -0.441042
-0.0697468 -0.367772
0.00982642 -0.476492
-0.048106 -0.395018
-0.0575902 -0.371385
0.0585483 -0.380558
0.0375568 -0.413674
0.0620444 -0.382249
0.010984 -0.449568
0.070658 -0.359631
0.0611099 -0.356083
0.0550239 -0.382481
0.0531735 -0.32543
0.0543213 -0.323329
0.0327457 -0.273831
0.017257 -0.227673
0.0499387 -0.319292
-0.0543639 -0.333553
-0.0387827 -0.289722
-0.0580976 -0.335299
-0.0233016 -0.242601
-0.0525745 -0.334391
-0.0166264 -0.184693
-0.0320197 -0.253475
-0.0179379 -0.172206
-0.0402908 -0.306379
0.00584529 -0.0583391
0.00230046 -0.1453
-0.0196403 -0.217643
-0.00643441 -0.409346
-0.00515594 -0.407362
-0.0156491 -0.39514
-0.000452719 -0.411331
-0.0283643 -0.382243
-0.00674536 -0.409571
0.00366128 -0.410227
0.0115247 -0.403986
0.0186841 -0.383743
0.00692614 -0.402178
0.0330578 -0.36458
0.0160666 -0.403168
0.0116431 -0.170627
0.0150063 -0.157544
0.0295905 -0.233814
-0.00694883 -0.0565485
0.0386626 -0.283549
0.0141632 -0.20356
-0.00563989 -0.138125
-0.0460866 -0.398135
-0.0327895 -0.41759
-0.0143547 -0.440969
-0.0219858 -0.432078
0.0561782 -0.373511
0.0356284 -0.412438
0.0131686 -0.442193
0.0145811 -0.439856
-0.0512787 -0.384298
-0.0393477 -0.409374
-0.0284683 -0.424157
-0.0346928 -0.415762
-0.0391244 -0.407897
-0.0405686 -0.402106
-0.0463438 -0.393198
-0.0319698 -0.409968
-0.0377653 -0.400151
-0.0515745 -0.375494
-0.0307829 -0.418896
0.0414961 -0.400543
0.0361537 -0.406276
0.035175 -0.411144
0.0286745 -0.419594
0.0237242 -0.420827
0.0324526 -0.417301
-0.0250485 -0.41403
-0.0276431 -0.416354
-0.0257945 -0.420964
-0.0206896 -0.421859
-0.0209492 -0.414279
-0.0181374 -0.418071
-0.0146 -0.420497
-0.0111638 -0.419939
0.00828982 -0.418267
0.00356603 -0.418213
0.00284344 -0.420007
-0.000204133 -0.421199
-0.00543378 -0.420699
0.00355288 -0.421431
0.0238823 -0.417151
0.0288753 -0.411326
0.0216692 -0.414708
0.0336094 -0.403917
0.0174402 -0.413304
0.0142949 -0.417231
0.0183398 -0.421439
0.012168 -0.419537
0.00735864 -0.421259
0.00914285 -0.422657
0.00414475 -0.422303
0.0119831 -0.420901
0.0142953 -0.42143
0.0198156 -0.0298832
0.0193284 -0.0768265
0.0151679 -0.0399943
0.0202227 -0.11282
0 0
0 0
0.0242311 -0.0241025
0.0408144 -0.0662557
0.0327595 -0.0830569
0.0371319 -0.0482528
-0.0435452 -0.235824
-0.0524189 -0.256455
-0.0372868 -0.0478041
-0.033319 -0.0813872
-0.0408088 -0.0655094
-0.0222261 -0.107889
0.0437321 -0.234795
0.0524621 -0.255073
-0.0243789 -0.0239929
-0.0157369 -0.0392957
-0.0207269 -0.0746577
-0.0199601 -0.0295857
-0.048306 -0.348092
-0.0243652 -0.394515
-0.0266586 -0.400618
-0.0171376 -0.405076
-0.0279578 -0.393634
-0.0042376 -0.410513
-0.0383439 -0.370792
-0.0333928 -0.398936
-0.0221569 -0.407803
-0.0452035 -0.366986
-0.049496 -0.367834
-0.0426047 -0.385449
-0.0526852 -0.350716
-0.0442998 -0.342337
-0.0369465 -0.275205
-0.0483371 -0.320377
-0.0438953 -0.305077
0.0402368 -0.284619
0.0447906 -0.303125
0.0314435 -0.257936
0.0527813 -0.334881
0.0450481 -0.320085
0.0501817 -0.368561
0.0531952 -0.353149
0.0490265 -0.345403
0.0556769 -0.36495
0.0432394 -0.347678
0.0445036 -0.381919
0.0474218 -0.387462
0.0277511 -0.403701
0.0192432 -0.406537
0.0180244 -0.409908
0.017449 -0.404956
0.0076335 -0.409772
0.00950808 -0.413022
0.0360054 -0.395808
0.0361234 -0.376033
0.0276075 -0.393458
0.0382864 -0.38509
0.0468584 -0.395868
0.0425121 -0.404025
0.0518141 -0.384162
0.0261777 -0.425818
0.0467127 -0.394279
0.0391703 -0.409072
0.0299155 -0.421566
-0.00475898 -0.417522
-0.0115465 -0.416327
-0.00776339 -0.419109
-0.018355 -0.412728
0.00104633 -0.415866
-0.00299163 -0.411747
-0.0117375 -0.411553
9.56645e-05 -0.413405
0.0071398 -0.539164
-0.00860872 -0.537707
-0.00576212 -0.557236
-0.0069635 -0.505069
-0.0183346 -0.528059
-0.0141683 -0.566956
0.0115411 -0.560475
0.0224833 -0.548564
0.0165448 -0.523133
0.0192844 -0.464504
0.00725294 -0.487974
0.0147234 -0.496286
-0.0015617 -0.482225
0.0302327 -0.506014
0.0311744 -0.44728
0.0243041 -0.443792
0.0651644 -0.332322
0.0615403 -0.279576
0.0544374 -0.297476
0.0383978 -0.283422
0.0464072 -0.271301
0.0693405 -0.313882
-0.0614203 -0.281164
-0.0679519 -0.341588
-0.0560689 -0.306025
-0.047988 -0.279292
-0.0432255 -0.298473
-0.0682138 -0.315375
-0.0586943 -0.38584
-0.0595651 -0.391092
-0.0428066 -0.41044
-0.0754349 -0.369131
-0.0568585 -0.404854
-0.02518 -0.444369
-0.0295854 -0.428252
-0.0585293 -0.381649
-0.0656261 -0.366321
-0.00114305 -0.46695
0.0112111 -0.483533
-0.00228945 -0.459989
0.0237058 -0.509752
0.0227219 -0.499952
-0.00423477 -0.454926
-0.0174541 -0.437332
-0.0148931 -0.447161
0.000231051 -0.477814
-0.0471123 -0.396842
-0.0534035 -0.383938
-0.0538152 -0.385245
-0.0538834 -0.379098
-0.0566603 -0.36651
-0.0597328 -0.368538
-0.0552908 -0.384191
-0.031402 -0.418652
-0.0383588 -0.409651
0.0232246 -0.432789
0.0119337 -0.453303
0.0250534 -0.435792
-0.0025566 -0.474863
0.0374296 -0.417264
0.0376384 -0.411173
0.0245109 -0.428506
0.0601358 -0.389398
0.0708638 -0.375498
0.0686102 -0.371189
0.0679903 -0.39053
0.0767851 -0.363875
0.0673104 -0.356946
0.0666184 -0.367318
0.0511416 -0.399941
0.0457254 -0.41495
0.0620654 -0.367631
0.0597206 -0.36982
0.0566703 -0.381286
0.0591427 -0.353007
0.0586999 -0.366354
0.0482422 -0.394904
0.0484287 -0.395669
0.0638703 -0.368263
0.062642 -0.35542
0.0630776 -0.340978
0.0644685 -0.338423
0.0534127 -0.318
0.0406692 -0.292309
0.0613692 -0.341128
0.0593767 -0.340073
0.0586812 -0.34167
0.0566446 -0.339416
0.044226 -0.30255
-0.0577529 -0.330954
-0.0683644 -0.349133
-0.0652865 -0.350672
-0.0627206 -0.352341
-0.0462415 -0.30792
-0.0598286 -0.349528
-0.0586827 -0.353739
-0.0480978 -0.31504
-0.0563068 -0.349588
-0.0262192 -0.425732
-0.016287 -0.438436
-0.0235419 -0.429623
-0.0242749 -0.42911
-0.0129439 -0.442649
-0.032739 -0.41825
0.0122388 -0.444728
0.000384792 -0.460533
-0.00121232 -0.465639
0.00271129 -0.455678
-0.0091105 -0.472603
-0.0133069 -0.487936
0.0246196 -0.427045
0.0249409 -0.42654
0.0140165 -0.440615
0.0250663 -0.426192
0.00391288 -0.4535
0.0365357 -0.41117
0.0434038 -0.401715
0.0306753 -0.419569
0.00832954 -0.447647
0.0208735 -0.432112
0.0324706 -0.418372
0.0383201 -0.40974
-0.00178647 -0.460285
0.0145652 -0.440092
0.0176357 -0.436582
0.00648619 -0.449377
-0.00355883 -0.454184
0.00700275 -0.466728
-0.00374612 -0.453516
0.0195636 -0.482637
0.0184893 -0.479274
-0.00292477 -0.453776
-0.00444143 -0.45352
0.0102063 -0.507942
0.0180978 -0.539697
0.0220121 -0.523757
0.00704186 -0.555513
0.0202087 -0.563894
0.0325916 -0.535579
-0.00268688 -0.494438
-0.0154827 -0.535911
-0.00211517 -0.544067
-0.00623257 -0.515567
-0.011414 -0.560805
-0.0147273 -0.477641
-0.0261587 -0.518905
-0.0220963 -0.549188
-0.0438494 -0.452926
-0.0360236 -0.495805
-0.027325 -0.467772
-0.0336177 -0.534134
-0.0465118 -0.515464
0.04116 -0.56069
0.0353451 -0.577002
0.0468192 -0.582845
-0.0608264 -0.490443
-0.0708053 -0.450372
0.0583649 -0.588247
0.0437683 -0.547989
0.053739 -0.447906
0.0393153 -0.443614
0.0403289 -0.479193
0.0336979 -0.533703
0.0465188 -0.515112
-0.033461 -0.560444
-0.0430878 -0.58145
-0.0304033 -0.579221
-0.0552122 -0.586949
0.0597362 -0.490439
0.0722906 -0.45097
-0.0313475 -0.537324
0.0669439 -0.464652
0.0745119 -0.460381
0.0662713 -0.455064
0.0803531 -0.465131
0.0208547 -0.428314
0.017867 -0.427946
0.0599133 -0.450981
0.0595345 -0.469045
0.0677055 -0.474665
0.0799784 -0.480137
0.0922456 -0.483243
0.0877053 -0.473
0.0980218 -0.491792
0.0149261 -0.427676
0.0129004 -0.427538
0.0728364 -0.484377
0.097691 -0.525399
0.110319 -0.528517
0.107374 -0.516318
0.112309 -0.540105
0.0108919 -0.427451
0.00951155 -0.42742
0.102007 -0.503782
0.0855004 -0.520916
0.089936 -0.532737
0.0992418 -0.547195
0.108853 -0.560565
0.111438 -0.55092
0.105989 -0.568808
0.103225 -0.589313
0.108127 -0.58434
0.0886847 -0.542513
0.0883549 -0.577288
0.0942351 -0.587078
0.098412 -0.581909
0.0889865 -0.590678
0.11259 -0.578263
0.116564 -0.571008
0.102598 -0.5762
0.0828108 -0.567381
0.0793879 -0.572762
0.0773787 -0.581123
0.0754269 -0.591845
0.0826076 -0.592224