<?xml version="1.0"?>
<VTKFile type="UnstructuredGrid">
  <UnstructuredGrid>
  <Piece NumberOfPoints="3487"  NumberOfCells="1698">
    <Points>
      <DataArray type="Float64" NumberOfComponents="3" format="ascii">
39.9738 48.8263 0
60.0265 48.8259 0
40.6343 48.957 0
41.2964 49.0788 0
41.96 49.1916 0
42.625 49.2955 0
43.2913 49.3904 0
43.9587 49.4762 0
44.6273 49.5531 0
45.2968 49.621 0
45.9672 49.6798 0
46.6382 49.7296 0
47.3099 49.7703 0
47.9821 49.802 0
48.6546 49.8246 0
49.3273 49.8382 0
50.0002 49.8427 0
50.6731 49.8382 0
51.3458 49.8246 0
52.0183 49.8019 0
52.6905 49.7702 0
53.3622 49.7294 0
54.0332 49.6796 0
54.7036 49.6208 0
55.3731 49.5529 0
56.0416 49.476 0
56.7091 49.3901 0
57.3754 49.2952 0
58.0403 49.1913 0
58.7039 49.0785 0
59.366 48.9566 0
39.9974 49.842 0
39.9963 49.588 0
39.9919 49.3341 0
39.9844 49.0801 0
19.9554 69.8002 0
39.9952 50.1037 0
39.9895 50.3653 0
39.9753 50.7437 0
39.9539 51.1217 0
39.9103 51.6679 0
39.8517 52.2128 0
39.7405 52.998 0
39.5982 53.7781 0
39.3378 54.8956 0
39.0135 55.9965 0
38.7398 56.7804 0
38.4338 57.5524 0
38.0959 58.311 0
37.7268 59.055 0
37.1387 60.1029 0
36.4887 61.1137 0
35.7792 62.0836 0
-0.0234352 49.779 0
17.3453 69.6251 0
14.7803 69.1112 0
12.3042 68.2673 0
9.95925 67.1076 0
7.78565 65.652 0
11.5254 31.7596 0
0.180173 46.9599 0
0.780039 44.198 0
1.76432 41.5486 0
0 0 0
0.128205 3.71924 0
0.540653 7.42111 0
1.23247 11.0828 0
2.19919 14.6814 0
3.10324 17.3323 0
49.9999 -0.150328 0
5.1116 0 0
10.2232 0 0
15.3348 0 0
100 0 0
57.3971 -0.145625 0
64.7943 -0.128458 0
72.1881 -0.0925551 0
88.4749 31.7592 0
99.8718 3.71923 0
99.4594 7.42099 0
98.7676 11.0827 0
97.8009 14.6812 0
96.8969 17.3322 0
100.023 49.7788 0
99.8199 46.9597 0
99.22 44.1978 0
98.2357 41.5484 0
80.0445 69.7999 0
99.8554 52.3893 0
99.3477 54.9554 0
98.5091 57.4332 0
97.3541 59.7805 0
95.9027 61.9567 0
60.0028 49.8416 0
77.5337 69.6458 0
75.0619 69.1781 0
72.6684 68.4041 0
70.3908 67.336 0
68.9038 66.4348 0
67.5005 65.4079 0
66.1917 64.263 0
64.9873 63.0088 0
64.2208 62.0833 0
63.5113 61.1134 0
62.8613 60.1026 0
62.2733 59.0546 0
61.5663 57.5521 0
60.9866 55.9961 0
60.6624 54.8953 0
60.4019 53.7777 0
60.2596 52.9976 0
60.0039 49.5876 0
60.0083 49.3337 0
60.0158 49.0797 0
52.8193 30.0959 0
26.5276 36.9187 0
40.3319 24.221 0
24.9347 22.4873 0
71.9358 22.5152 0
72.7055 43.9787 0
54.8036 24.0454 0
15.3026 47.4441 0
38.3607 49.4551 0
23.6015 65.2732 0
7.69694 7.74335 0
91.9447 7.7218 0
29.1647 56.917 0
37.1839 51.9272 0
28.0885 47.225 0
29.7276 48.1861 0
71.5152 46.7095 0
30.986 49.0844 0
70.5147 48.1879 0
31.6358 45.6698 0
30.887 47.1261 0
70.0641 46.6974 0
68.9836 45.0201 0
31.2902 50.1798 0
30.9028 51.4036 0
28.1874 49.1829 0
45.3075 41.3006 0
53.8444 40.9218 0
56.0285 40.4707 0
73.1276 47.4655 0
70.1148 49.429 0
68.3332 42.448 0
32.3103 42.778 0
26.1364 45.7072 0
27.6766 44.7104 0
30.3036 43.3369 0
70.4139 42.6476 0
72.6769 45.9754 0
44.8483 43.0932 0
51.4308 41.9997 0
55.4105 42.5862 0
32.4497 49.1198 0
68.5555 49.6644 0
39.4757 42.0848 0
35.4384 43.4023 0
32.8942 46.5678 0
33.5768 48.3163 0
67.1042 48.2616 0
67.9829 46.4986 0
65.0742 43.0657 0
60.4205 41.7224 0
32.3666 51.4392 0
28.2154 51.0426 0
41.7763 37.3062 0
46.8226 37.711 0
52.0494 39.8842 0
58.6798 39.2538 0
26.6043 51.9407 0
24.2991 50.3752 0
74.228 49.981 0
71.1661 50.6818 0
69.1434 52.2616 0
67.9182 52.3944 0
59.7648 36.3733 0
66.5049 40.6925 0
34.1058 41.0689 0
36.0223 35.8043 0
23.183 47.204 0
21.6458 43.3051 0
28.3518 41.8198 0
74.3178 44.735 0
76.6374 48.5882 0
43.0534 43.6813 0
46.2681 42.967 0
49.968 43.0149 0
48.4325 42.7977 0
51.7633 44.0526 0
54.0888 44.1683 0
52.9063 44.4639 0
56.2734 43.7171 0
33.8811 49.412 0
33.7819 50.9261 0
66.5376 51.7421 0
66.5961 49.7503 0
41.831 43.9189 0
40.7017 43.6566 0
38.4592 43.2643 0
37.1409 43.87 0
35.3455 45.5792 0
34.3255 46.8597 0
66.0238 46.5839 0
65.0194 45.3095 0
63.1912 43.5539 0
61.7056 43.1041 0
58.8796 43.5171 0
57.5399 43.8331 0
33.3945 52.1501 0
29.1653 53.764 0
40.8317 31.0277 0
50.8855 36.0249 0
55.6691 34.3069 0
23.559 53.4902 0
76.9194 51.9584 0
70.2394 53.3701 0
66.4083 52.9837 0
65.4759 35.1887 0
30.9491 34.6059 0
19.4458 47.3277 0
26.1264 40.056 0
72.0065 34.1261 0
72.0545 41.4076 0
77.4852 45.3401 0
43.1665 45.1235 0
45.809 44.7596 0
48.7646 44.8506 0
51.4434 45.4792 0
53.7691 45.5949 0
56.2183 45.4154 0
34.9091 50.1227 0
65.0862 50.3392 0
40.8146 45.0988 0
38.3668 45.442 0
36.0284 47.328 0
64.1404 47.0729 0
61.6503 45.3488 0
58.8249 45.2153 0
36.0669 52.397 0
34.9158 53.1609 0
33.5005 53.6738 0
31.8999 55.4675 0
26.0911 58.9408 0
22.9945 57.3465 0
32.3946 22.726 0
47.0362 26.714 0
63.1403 23.0722 0
19.9873 55.0566 0
80.1906 54.3218 0
75.8029 55.8278 0
71.94 56.1778 0
69.0929 55.4966 0
65.7758 53.9923 0
64.0999 53.8356 0
68.1561 29.0276 0
26.7737 30.1153 0
17.2369 51.7882 0
14.5996 42.4829 0
22.3998 34.0948 0
84.8964 46.9055 0
84.7227 52.0616 0
75.1714 37.9662 0
81.2137 43.977 0
42.4561 46.4542 0
41.4155 46.2627 0
44.9652 46.2995 0
43.6788 46.2165 0
47.736 46.2408 0
46.3853 46.1733 0
50.62 46.5541 0
49.2719 46.458 0
53.0508 46.9492 0
51.7632 46.9655 0
55.5134 46.5616 0
54.2335 46.6536 0
58.0618 46.5156 0
56.7803 46.6777 0
36.3729 48.6507 0
36.0261 49.6527 0
35.9268 51.1672 0
63.3865 52.101 0
63.83 51.0882 0
63.8886 49.0959 0
63.8375 48.1928 0
40.286 46.0002 0
39.3703 46.18 0
38.0517 46.7854 0
37.3931 47.3701 0
62.833 46.9182 0
62.0173 46.5932 0
60.5315 46.1437 0
59.4018 46.1993 0
38.0582 52.5972 0
36.1728 53.9211 0
34.07 56.784 0
29.5925 59.8559 0
22.8665 61.407 0
21.7383 15.4307 0
39.9645 16.2464 0
48.901 11.531 0
56.9434 16.9779 0
76.6453 15.6698 0
15.6294 57.1068 0
84.5294 57.5423 0
73.4174 59.5224 0
66.5239 55.6532 0
62.4587 53.6054 0
82.9396 7.84564 0
79.7428 22.6306 0
16.3087 7.92679 0
18.3475 22.3448 0
10.7163 46.8077 0
16.5796 36.0339 0
15.5217 30.4322 0
89.4107 49.6849 0
83.3111 31.2769 0
81.5762 39.3314 0
41.9277 47.3558 0
44.255 47.6303 0
46.8925 47.7808 0
49.5915 47.9443 0
52.2274 48.0242 0
54.7952 47.916 0
57.357 47.6619 0
37.3908 49.6951 0
37.9183 51.3671 0
62.1888 50.8576 0
62.581 48.9415 0
39.9711 47.3441 0
38.3965 48.1084 0
38.5116 48.8784 0
61.7652 48.577 0
61.7141 47.7135 0
59.7686 47.4443 0
38.8881 51.1274 0
61.349 51.0619 0
39.1954 52.9076 0
38.4611 53.4676 0
38.1688 54.5767 0
37.0177 55.3404 0
36.5134 57.1139 0
34.8651 58.6368 0
33.3576 60.4944 0
30.741 62.6052 0
27.9808 64.7572 0
27.1693 7.84721 0
38.6562 8.38172 0
59.8765 8.60675 0
71.7666 7.92915 0
19.2271 64.7187 0
14.9306 62.9854 0
10.7312 60.1979 0
6.28391 57.1547 0
5.99324 51.2218 0
94.2405 52.3191 0
93.3254 57.3733 0
89.3412 60.7175 0
84.589 63.2291 0
79.4818 64.9003 0
74.5831 63.9326 0
70.275 62.6506 0
66.838 61.1964 0
65.2232 58.5241 0
62.7226 57.1972 0
62.0793 55.668 0
61.787 54.5589 0
61.0736 52.824 0
93.4912 14.5541 0
89.7945 20.7331 0
86.1093 25.0874 0
6.25527 14.5469 0
13.0101 24.5507 0
9.7904 20.7221 0
5.7564 45.6539 0
5.65219 40.7105 0
12.303 34.7648 0
94.233 47.2001 0
88.1195 37.1144 0
93.3612 42.471 0
41.0915 48.1215 0
40.4305 47.9952 0
42.1325 48.3131 0
43.4635 48.5117 0
42.7967 48.4214 0
44.7501 48.5948 0
46.0898 48.7214 0
45.4191 48.6671 0
47.4408 48.7889 0
48.7853 48.8432 0
48.1127 48.8251 0
50.1335 48.9393 0
51.479 48.9211 0
50.8064 48.9393 0
52.7667 48.9049 0
54.1093 48.8143 0
53.4386 48.8687 0
55.3895 48.7224 0
56.7253 48.5596 0
56.0585 48.65 0
58.0072 48.3974 0
59.3325 48.1628 0
58.6714 48.2891 0
39.3733 51.5795 0
39.3222 52.125 0
60.9469 52.0414 0
60.8958 51.4959 0
38.0137 50.4574 0
39.1345 49.6407 0
61.7924 50.0489 0
61.8164 49.4803 0
60.9766 49.6845 0
39.5145 48.1749 0
39.1705 48.2938 0
60.9493 48.2522 0
60.4624 48.1071 0
39.4687 50.6695 0
60.4994 50.6872 0
39.4905 50.0297 0
39.4865 50.2913 0
60.4816 50.309 0
60.4777 50.0474 0
39.6415 49.4529 0
39.6296 48.9451 0
39.6387 49.1989 0
60.5016 49.4786 0
60.5044 49.2247 0
60.5135 48.9709 0
61.0006 49.1158 0
39.2855 49.064 0
60.9527 50.2532 0
38.9835 50.2175 0
60.8984 47.3885 0
39.0552 47.5237 0
62.6323 49.8447 0
37.0438 50.6973 0
61.7454 51.8706 0
38.7926 52.0372 0
58.6387 47.4997 0
56.0753 47.824 0
53.5151 48.0079 0
50.9397 48.0404 0
48.2434 47.8482 0
45.5415 47.7133 0
42.9684 47.5473 0
40.8869 47.1642 0
89.1552 44.8371 0
10.9238 40.9633 0
13.2812 16.1947 0
85.8811 16.4039 0
63.1722 55.3402 0
68.9214 58.5115 0
78.9486 59.9126 0
89.2953 54.9691 0
11.7665 52.916 0
19.2293 59.74 0
66.7145 15.7917 0
30.7566 15.5096 0
26.352 62.1789 0
32.1584 58.0257 0
35.0217 54.685 0
37.3238 53.1573 0
62.53 48.0383 0
37.7377 48.6929 0
75.9454 28.7187 0
20.5079 28.626 0
47.9144 19.3329 0
60.1647 44.899 0
63.1361 45.7982 0
37.0482 46.0473 0
39.6852 44.8363 0
65.145 48.3473 0
65.0278 52.3314 0
34.8098 51.6371 0
35.0082 48.6085 0
57.4851 45.5314 0
54.9516 45.2993 0
52.5866 45.8905 0
50.3003 45.0678 0
47.2289 44.6334 0
44.389 44.8858 0
41.944 45.3611 0
74.3462 42.7387 0
80.2655 48.9303 0
17.996 43.384 0
21.3107 50.8414 0
34.4384 29.7472 0
59.9878 30.2999 0
67.7889 53.636 0
73.4019 53.0762 0
54.4626 38.8064 0
46.5075 32.9618 0
26.2337 55.4465 0
31.9791 52.6631 0
69.7637 40.0758 0
30.978 40.4455 0
57.5948 42.1349 0
63.2464 41.3097 0
66.9027 44.8209 0
33.6427 45.1112 0
37.2334 41.6927 0
41.718 42.4768 0
68.0475 51.153 0
32.754 50.2154 0
53.226 43.0373 0
49.6358 40.9621 0
74.2894 46.7315 0
25.7246 43.1933 0
71.9659 48.1998 0
26.5483 48.2217 0
69.0636 48.1761 0
32.1454 48.0243 0
71.0647 45.2191 0
29.6286 46.2281 0
29.8264 50.1444 0
88.1574 34.4515 0
96.8865 39.0653 0
91.3021 35.8213 0
92.2291 38.6865 0
96.0832 37.9018 0
88.4963 40.8545 0
3.11354 39.0655 0
11.8669 33.2208 0
10.0014 35.098 0
3.91694 37.902 0
8.3174 37.604 0
11.6909 37.109 0
11.4 22.637 0
10.9841 26.4983 0
9.37407 24.5862 0
11.8603 28.9893 0
4.15576 19.9271 0
5.35347 22.4572 0
8.24028 22.8168 0
11.5353 18.4576 0
13.1448 20.3731 0
8.02224 17.6358 0
6.97252 20.3249 0
5.20471 17.236 0
6.69228 24.9144 0
7.78877 26.7082 0
4.22695 14.6143 0
9.76754 15.3717 0
87.9521 22.9107 0
90.4185 24.5913 0
88.5757 26.7656 0
91.5523 22.8221 0
95.8443 19.9269 0
94.6466 22.457 0
87.7219 29.3061 0
85.9961 20.7461 0
[...]
    <PointData>
      <DataArray type="Float64" NumberOfComponents="2" Name="Displacement" format="ascii">
-0.000438121 -0.158256
0.000674649 -0.158648
-8.46686e-05 -0.15804
0.00016496 -0.157822
0.000297867 -0.157672
0.000390147 -0.157547
0.000445773 -0.157454
0.000480629 -0.157389
0.000492805 -0.157335
0.000490929 -0.157296
0.000475019 -0.157272
0.000449198 -0.15726
0.000413198 -0.15725
0.000370465 -0.157249
0.000321589 -0.157254
0.00026918 -0.157266
0.000213619 -0.157277
0.000157388 -0.157293
0.000101778 -0.157314
4.85541e-05 -0.157341
-3.37181e-07 -0.157369
-4.38502e-05 -0.157404
-7.98255e-05 -0.157448
-0.000106795 -0.157502
-0.0001205 -0.157561
-0.000121505 -0.157637
-0.000105013 -0.157733
-6.9497e-05 -0.157852
8.32418e-06 -0.157983
0.000120226 -0.158158
0.000331122 -0.158401
-0.00263611 -0.157986
-0.00212493 -0.158001
-0.00161713 -0.158034
-0.00109125 -0.158113
-0.0445567 -0.199825
-0.00313341 -0.157992
-0.00363255 -0.158008
-0.00436135 -0.158046
-0.00509791 -0.158101
-0.00616863 -0.15821
-0.00725442 -0.158352
-0.00884985 -0.15862
-0.010468 -0.158959
-0.0128364 -0.159579
-0.0152235 -0.16035
-0.0169466 -0.160998
-0.0186626 -0.161725
-0.0203621 -0.162534
-0.022038 -0.163417
-0.024405 -0.164822
-0.0266944 -0.166368
-0.0288823 -0.168048
-0.0234352 -0.220996
-0.0441733 -0.203773
-0.0433447 -0.207288
-0.0421817 -0.210332
-0.0407542 -0.212914
-0.0391622 -0.21507
0.0290477 -0.138253
-0.0195874 -0.220447
-0.0150099 -0.219016
-0.00965173 -0.216556
0 0
-0.0110638 -0.010041
-0.0156479 -0.016678
-0.016298 -0.0220432
-0.013607 -0.0285884
-0.00989594 -0.0349266
-0.000135452 -0.150328
0 0
0 0
0 0
0 0
0.00871151 -0.145625
0.0175285 -0.128458
0.0229047 -0.0925551
-0.0287572 -0.138589
0.0111065 -0.0100254
0.0157149 -0.0167356
0.0163758 -0.0221333
0.013693 -0.028707
0.00998174 -0.035049
0.0234982 -0.22117
0.0196494 -0.220618
0.0150991 -0.219181
0.00972432 -0.216753
0.0445275 -0.200101
0.0265485 -0.221261
0.0291797 -0.220938
0.0315231 -0.220378
0.0336229 -0.219519
0.0355873 -0.218443
0.0027953 -0.158389
0.0443908 -0.195947
0.0436673 -0.191516
0.0422899 -0.186904
0.0402326 -0.182238
0.038395 -0.179055
0.0362332 -0.175955
0.0337497 -0.172993
0.03098 -0.170207
0.0289056 -0.168413
0.0267242 -0.166739
0.0244416 -0.165198
0.0220815 -0.163797
0.0187208 -0.162118
0.0152942 -0.160734
0.0129164 -0.159973
0.0105634 -0.15936
0.00895239 -0.159022
0.0022993 -0.15841
0.0018058 -0.158447
0.00128451 -0.158526
-0.00303755 -0.153251
0.0133293 -0.152571
0.0105082 -0.147066
0.0176998 -0.119123
-0.0178937 -0.126208
-0.00278441 -0.165279
-0.00544199 -0.150826
-0.0126504 -0.186884
-0.00209237 -0.160498
-0.0367159 -0.193053
-0.0117376 -0.0213676
0.011533 -0.0217727
-0.0192825 -0.178885
-0.00692653 -0.163083
-0.00209263 -0.169366
-0.00291643 -0.169097
0.00115069 -0.168603
-0.00386734 -0.168868
0.00314433 -0.169686
0.00175012 -0.164312
-0.000704752 -0.166681
0.000510192 -0.167331
-0.00239971 -0.16434
-0.005624 -0.169712
-0.00798905 -0.171442
-0.00539395 -0.17201
0.00267615 -0.156255
-0.00210378 -0.15642
-0.00353304 -0.156394
0.00325444 -0.171222
0.00506581 -0.170808
-0.00599463 -0.160797
0.00572869 -0.160539
-0.000551376 -0.1687
0.00186493 -0.165871
0.00476164 -0.162233
-0.00548391 -0.161971
0.000488329 -0.168486
0.00230142 -0.15661
-0.000600188 -0.156551
-0.00238726 -0.156804
-0.0033349 -0.167313
0.00477652 -0.169341
0.00509248 -0.157112
0.00496313 -0.159561
0.000792777 -0.164275
-0.00163412 -0.165332
0.00190358 -0.166344
-0.00051303 -0.165315
-0.00522652 -0.159934
-0.00515503 -0.157332
-0.00743504 -0.1696
-0.00867783 -0.174379
0.00638918 -0.154928
0.00254022 -0.155442
-0.00120628 -0.156174
-0.00570071 -0.156139
-0.0112297 -0.17755
-0.00993389 -0.178312
0.00832782 -0.176222
0.00779342 -0.173524
0.00968719 -0.172688
0.00942378 -0.171158
-0.00782369 -0.154801
-0.0079057 -0.158217
0.00751311 -0.158061
0.0110021 -0.153247
-0.00512317 -0.174289
0.000876956 -0.167827
0.00656652 -0.16088
-0.000768303 -0.167712
0.0075325 -0.176883
0.0027522 -0.156831
0.00174168 -0.156582
0.000140367 -0.156673
0.000825729 -0.156595
-0.000505072 -0.15688
-0.00130933 -0.15698
-0.000832303 -0.156974
-0.00227581 -0.157075
-0.00330418 -0.165973
-0.00597178 -0.16734
0.00769254 -0.16875
0.0041689 -0.167175
0.00305217 -0.157056
0.00359672 -0.157278
0.00456802 -0.157957
0.00432102 -0.158929
0.00256132 -0.161332
0.000736814 -0.163277
-0.000894423 -0.163711
-0.00270248 -0.161773
-0.00451619 -0.159311
-0.00458898 -0.158344
-0.0033608 -0.157498
-0.0026823 -0.157267
-0.00837289 -0.168804
-0.0132058 -0.176139
0.0092904 -0.151291
-0.000658442 -0.155234
-0.00516701 -0.154495
-0.0159477 -0.18375
0.0136607 -0.182622
0.01226 -0.175252
0.0100033 -0.169471
-0.0122229 -0.152656
0.0144842 -0.150237
-0.00847927 -0.179387
0.00879176 -0.158476
-0.015894 -0.148225
-0.0069741 -0.160702
0.00233485 -0.171706
0.00200096 -0.15705
0.00141801 -0.156861
0.000516138 -0.156909
-0.000238237 -0.157057
-0.000814549 -0.157154
-0.00147502 -0.157315
-0.00417061 -0.165301
0.00468056 -0.165809
0.00259434 -0.157562
0.00274662 -0.158949
0.000476237 -0.16202
-0.000618141 -0.162378
-0.00265578 -0.159313
-0.00222238 -0.157822
-0.00807056 -0.16504
-0.00985747 -0.167223
-0.0112835 -0.16972
-0.0153867 -0.173432
-0.0244245 -0.185442
-0.0230309 -0.189014
0.0166414 -0.134818
0.00330167 -0.151803
-0.0135835 -0.14276
-0.021009 -0.191159
0.0199797 -0.190794
0.0197379 -0.1859
0.0183875 -0.180359
0.0158745 -0.175371
0.0117925 -0.169136
0.0110746 -0.166314
-0.0166919 -0.143211
0.0188947 -0.139568
-0.0178536 -0.19105
-0.00446589 -0.176746
0.0174555 -0.145182
0.0120008 -0.186452
0.0198627 -0.195186
-0.0117214 -0.154849
0.00296269 -0.173127
0.00144481 -0.157315
0.00169189 -0.157529
0.00115269 -0.157077
0.00138934 -0.157138
0.000638715 -0.157058
0.000924182 -0.15704
3.10837e-05 -0.157152
0.000305167 -0.157109
-0.000372984 -0.157267
-0.000152505 -0.157222
-0.000865193 -0.157377
-0.000632553 -0.157297
-0.00123285 -0.157758
-0.000992254 -0.157533
-0.00131405 -0.162537
-0.00303071 -0.163589
-0.00575088 -0.164618
0.00748775 -0.164421
0.00566681 -0.164598
0.00223811 -0.163496
0.00084659 -0.162843
0.00204543 -0.15793
0.0020126 -0.158493
0.00144712 -0.15975
0.000688159 -0.160674
-0.00102089 -0.161028
-0.00145939 -0.160111
-0.00183435 -0.158806
-0.00163555 -0.158184
-0.00813482 -0.161804
-0.0111027 -0.16552
-0.0174844 -0.170437
-0.0249765 -0.180028
-0.0301342 -0.192491
0.0104256 -0.0873536
0.00891471 -0.143496
0.000579219 -0.151749
-0.00655973 -0.147963
-0.012258 -0.0942721
-0.0268114 -0.20047
0.0275456 -0.201404
0.0253626 -0.185357
0.0153529 -0.171289
0.0103413 -0.163361
0.00139697 -0.0385019
-0.0155046 -0.109597
-0.00231937 -0.036843
0.0133783 -0.103647
-0.0157493 -0.196301
0.0133802 -0.151404
0.0231116 -0.130972
0.0199849 -0.201087
-0.0223685 -0.135036
-0.00648658 -0.160852
0.000983734 -0.157507
0.000824563 -0.157252
0.000576866 -0.157192
0.000231405 -0.157234
-0.000106241 -0.157315
-0.000383668 -0.157444
-0.000570758 -0.157723
-0.00273439 -0.161874
-0.00572111 -0.161725
0.00489716 -0.162109
0.00165449 -0.161844
0.000985989 -0.158274
-2.95405e-05 -0.159945
-0.00108506 -0.160104
0.000898779 -0.1607
-0.000248197 -0.160288
-0.00068651 -0.158497
-0.00514862 -0.160065
0.00517418 -0.160839
-0.00868157 -0.159718
-0.00987427 -0.161226
-0.0122115 -0.161985
-0.0139364 -0.164409
-0.0178034 -0.165826
-0.0213046 -0.169546
-0.0255248 -0.1731
-0.0303668 -0.17894
-0.0351077 -0.184899
0.00790978 -0.0925176
0.00302565 -0.139331
-0.00284351 -0.142693
-0.0075694 -0.0996388
-0.0366374 -0.200059
-0.0351642 -0.205739
-0.0328564 -0.210248
-0.0306883 -0.214804
-0.0241785 -0.211882
0.0255997 -0.213242
0.0308539 -0.214587
0.0334929 -0.210831
0.0353794 -0.205416
0.036656 -0.198361
0.0339532 -0.189704
0.0306369 -0.181275
0.0270951 -0.174023
0.0211232 -0.170054
0.0179835 -0.164623
0.0146301 -0.163046
0.012253 -0.162277
0.00863045 -0.160625
0.0110803 -0.0387241
-0.000215505 -0.070055
-0.0122312 -0.102843
-0.0112328 -0.0379424
0.0100726 -0.0967443
-0.000212283 -0.0680489
-0.0167124 -0.20805
-0.00753528 -0.204489
0.0131621 -0.1561
0.0190946 -0.209518
-0.00468023 -0.168866
0.0110648 -0.202675
0.000484616 -0.157786
0.000446339 -0.158004
0.000555499 -0.157564
0.000601261 -0.157391
0.000586471 -0.157467
0.000600423 -0.157297
0.000535937 -0.157253
0.000572927 -0.157271
0.000438413 -0.157244
0.000315081 -0.157256
0.00037896 -0.157249
0.000181556 -0.157284
4.64117e-05 -0.157322
0.000113764 -0.157303
-7.11943e-05 -0.157372
-0.00017717 -0.157444
-0.000127093 -0.157406
-0.000241853 -0.157543
-0.00026998 -0.157698
-0.000262153 -0.157615
-0.000222897 -0.15792
-0.000120556 -0.158275
-0.000180659 -0.158078
-0.00600911 -0.159242
-0.00709403 -0.159391
0.00705771 -0.160283
0.00598164 -0.16012
-0.003972 -0.161306
-0.00227323 -0.159464
0.00334064 -0.161272
0.0023388 -0.161118
0.00254318 -0.160011
0.000157568 -0.158711
-7.25607e-05 -0.159126
0.000253644 -0.159633
-2.50012e-05 -0.159059
-0.00422837 -0.158991
0.00440539 -0.159329
-0.00299789 -0.158917
-0.00350251 -0.158936
0.00368723 -0.159274
0.00318924 -0.159254
-0.00185956 -0.158658
-0.000823744 -0.158698
-0.00136066 -0.158671
0.00210231 -0.159278
0.00161593 -0.159272
0.00112247 -0.159273
0.00152988 -0.159931
-0.00117325 -0.159161
0.00360341 -0.160062
-0.00338698 -0.159772
-0.000703286 -0.159371
0.000766567 -0.159062
0.00315549 -0.162344
-0.00460742 -0.162805
0.00678356 -0.161676
-0.00694712 -0.16037
-0.000642345 -0.158006
-0.000483507 -0.157556
-0.000253476 -0.15737
5.75625e-05 -0.157273
0.00041102 -0.157206
0.000720428 -0.157204
0.000889459 -0.15736
0.00111634 -0.15779
0.0126146 -0.192742
-0.00546382 -0.184078
-0.00104101 -0.0636377
-0.000458391 -0.067291
0.0140378 -0.16515
0.0218738 -0.177001
0.0283669 -0.194659
0.0266842 -0.206803
-0.0234666 -0.202546
-0.0288874 -0.197131
-0.013568 -0.12907
0.0144328 -0.120677
-0.0304307 -0.186988
-0.0205326 -0.174479
-0.0129071 -0.167819
-0.00935675 -0.16325
0.00032665 -0.161323
-0.00101283 -0.160969
-0.0200192 -0.134014
0.0207351 -0.129413
0.00213467 -0.151127
-0.00278367 -0.158307
-0.00225858 -0.160647
0.00216431 -0.160259
0.00304893 -0.157977
0.00142698 -0.164371
0.00832768 -0.16702
-0.00694784 -0.166468
-0.00164225 -0.164046
-0.00171421 -0.157522
-0.00120073 -0.157183
-0.000467432 -0.157139
5.3205e-05 -0.156974
0.00101606 -0.156849
0.00177977 -0.156916
0.00216589 -0.157283
-0.00415739 -0.164068
0.0110769 -0.182386
-0.0025174 -0.172499
-0.0129932 -0.1831
0.0149311 -0.146275
-0.010167 -0.150998
0.0117429 -0.171977
0.0133739 -0.179284
-0.00305542 -0.155961
0.00348442 -0.153745
-0.017861 -0.182117
-0.00987445 -0.171181
-0.00896124 -0.158101
0.00858059 -0.158129
-0.00362369 -0.156917
-0.00652851 -0.157872
-0.00309308 -0.162676
0.00292645 -0.162214
0.0061834 -0.157566
0.00392507 -0.15674
0.00718691 -0.170218
-0.00508667 -0.168012
-0.00127139 -0.156777
0.000326578 -0.15631
0.0026621 -0.171154
0.00352705 -0.164524
0.00388279 -0.171152
-0.00464798 -0.172378
0.00249653 -0.168229
-0.00166533 -0.166503
-0.0014366 -0.166083
0.000224327 -0.166612
-0.00623627 -0.171378
-0.013628 -0.157376
0.00352169 -0.212583
-0.00668478 -0.184857
0.00235184 -0.193821
8.3221e-05 -0.209793
0.00473472 -0.181892
-0.0034508 -0.212428
0.019782 -0.148944
0.00968733 -0.173879
2.77434e-05 -0.209606
0.000823936 -0.189466
0.00456266 -0.169561
0.0046912 -0.0818607
0.0114038 -0.0951928
0.00614599 -0.0786525
0.0185863 -0.113193
-0.00529507 -0.0427126
0.0001539 -0.0522106
0.00189706 -0.0673532
-0.00107563 -0.0666207
0.00365917 -0.079757
-0.00631936 -0.0516563
-0.00331559 -0.0550052
-0.0090698 -0.0413375
0.00611854 -0.0637703
0.0107105 -0.074374
-0.0126993 -0.0331436
-0.00681841 -0.0499046
-0.00597375 -0.0860368
-0.00628605 -0.0800769
-0.0124263 -0.0993077
-0.00200973 -0.0686215
0.00536287 -0.0428396
-0.000122761 -0.0523769
-0.0200887 -0.118085
-0.00541362 -0.084595
9.32724e-05 -0.0694432
0.006049 -0.0529952
0.0090737 -0.0418881
0.00322738 -0.0560726
0.0127001 -0.0335729
-0.00610102 -0.0639891
-0.0106712 -0.0746559
0.00609927 -0.0520074
-0.00471603 -0.127305
0.00372056 -0.136889
0.00421809 -0.116776
0.00184293 -0.149549
0 0
0 0
-0.0039596 -0.0597999
-0.0113605 -0.116162
-0.0084447 -0.136099
0.00510333 -0.122258
-0.00407741 -0.113863
-0.0041417 -0.134612
0.00420894 -0.0543319
0 0
-0.0226148 -0.0922196
-0.00232991 -0.148687
0.00938465 -0.130196
0.0117106 -0.107821
-0.0160587 -0.147848
-0.016345 -0.148456
-0.00572061 -0.16256
-0.0249401 -0.135623
0.00373164 -0.175637
-0.0173816 -0.145813
-0.0207485 -0.13699
0.0210011 -0.140371
0.0134271 -0.152465
0.0222158 -0.140962
0.00379535 -0.165647
0.025263 -0.132604
0.0219627 -0.131296
0.0197908 -0.141113
0.0191138 -0.11998
0.0194757 -0.119281
0.0117228 -0.10102
0.00610563 -0.0839838
0.0180195 -0.117676
-0.0195832 -0.122954
-0.01395 -0.106823
-0.0208491 -0.123641
-0.00834654 -0.0894358
-0.0190287 -0.123241
-0.00603167 -0.0679289
-0.0117965 -0.0931838
-0.00659012 -0.063215
-0.0148012 -0.112755
0.00217805 -0.0214738
0.000981778 -0.0535844
-0.00707089 -0.0801597
-0.00238741 -0.150971
-0.00194091 -0.150209
-0.00581562 -0.145664
-0.000164758 -0.15169
-0.0104602 -0.14089
-0.0024886 -0.151099
0.00135114 -0.151311
0.0042699 -0.148969
0.00694254 -0.141417
0.00260316 -0.148277
0.0121825 -0.134316
0.00591766 -0.148705
0.00417951 -0.0627843
0.00548646 -0.0578423
0.0108752 -0.0859437
-0.00258398 -0.0208241
0.014176 -0.104325
0.00503989 -0.0750086
-0.00221928 -0.0509653
-0.0166954 -0.147004
-0.0118357 -0.154164
-0.0051824 -0.162831
-0.00799075 -0.159639
0.0202652 -0.137792
0.0128239 -0.15221
0.00465904 -0.16309
0.00522309 -0.162341
-0.0185853 -0.141836
-0.0142773 -0.151215
-0.0103606 -0.156749
-0.0126259 -0.153643
-0.0142465 -0.150716
-0.0147832 -0.148535
-0.0168499 -0.145183
-0.0116772 -0.151506
-0.0137839 -0.147778
-0.0187317 -0.138541
-0.0112362 -0.154868
0.0151117 -0.147951
0.013186 -0.150117
0.0128246 -0.15196
0.0104741 -0.155152
0.00868975 -0.155661
0.0118268 -0.154251
-0.00916267 -0.153048
-0.0101098 -0.153947
-0.00944222 -0.155692
-0.00759392 -0.156064
-0.00766713 -0.153126
-0.00664752 -0.154603
-0.00536429 -0.155551
-0.00410031 -0.155326
0.00303891 -0.154682
0.00130588 -0.154646
0.00104302 -0.155357
-7.73505e-05 -0.155826
-0.00199988 -0.155624
0.00130834 -0.155924
0.00874111 -0.15427
0.010549 -0.152034
0.00792761 -0.153323
0.0122711 -0.149205
0.00638041 -0.152759
0.00523724 -0.15429
0.00673771 -0.155926
0.00446836 -0.155194
0.00271174 -0.155865
0.00338743 -0.156422
0.00153276 -0.15627
0.0044112 -0.155731
0.00526337 -0.155937
0.00730794 -0.0110856
0.00718594 -0.028407
0.0055878 -0.0147841
0.00761131 -0.0417488
0 0
0 0
0.0089618 -0.00896424
0.0152355 -0.0246918
0.0122364 -0.0308399
0.0137813 -0.0179577
-0.0153197 -0.0875083
-0.0185408 -0.0951177
-0.0138426 -0.0177944
-0.0124486 -0.0302293
-0.0152376 -0.0244188
-0.00835503 -0.0399444
0.0153833 -0.0871301
0.0185493 -0.094614
-0.00901884 -0.00892468
-0.00579892 -0.0145311
-0.00770559 -0.0276178
-0.00736308 -0.0109766
-0.0177092 -0.128261
-0.00894464 -0.145478
-0.0097725 -0.147845
-0.00630123 -0.149457
-0.0102735 -0.14518
-0.00155991 -0.151508
-0.0140745 -0.136671
-0.0122113 -0.147275
-0.00811239 -0.1506
-0.0165233 -0.135301
-0.0180286 -0.135656
-0.0155561 -0.142226
-0.0191373 -0.129287
-0.0162322 -0.126102
-0.0134224 -0.101336
-0.0175673 -0.118023
-0.0160278 -0.112323
0.0146502 -0.104785
0.016231 -0.111666
0.0113784 -0.0950004
0.0191102 -0.123418
0.0164737 -0.117862
0.0182627 -0.135935
0.0193058 -0.130198
0.0178774 -0.127282
0.0201368 -0.134607
0.0158461 -0.128083
0.016235 -0.140913
0.0172483 -0.143026
0.0101476 -0.149077
0.00704619 -0.150095
0.00659375 -0.151425
0.00640317 -0.149434
0.00279795 -0.151256
0.00347805 -0.152612
0.0131546 -0.146112
0.0132591 -0.138617
0.0101375 -0.145119
0.014008 -0.142051
0.01699 -0.146173
0.0153897 -0.149194
0.0187486 -0.141784
0.00946524 -0.157246
0.0169662 -0.145588
0.0142361 -0.151136
0.0108923 -0.155809
-0.00174565 -0.154359
-0.00423067 -0.153894
-0.00284936 -0.154992
-0.00671924 -0.152505
0.000380603 -0.15371
-0.00110006 -0.15204
-0.00430201 -0.152002
3.14325e-05 -0.152724
0.00208763 -0.198261
-0.00359812 -0.197768
-0.00260586 -0.204921
-0.00290628 -0.185832
-0.0070687 -0.194291
-0.00565882 -0.2085
0.00366324 -0.206094
0.00764663 -0.20171
0.00551367 -0.19235
0.00666642 -0.170873
0.0022585 -0.179501
0.00491377 -0.182494
-0.000870724 -0.177497
0.010489 -0.186031
0.0109991 -0.164531
0.00855635 -0.16335
0.0232886 -0.122727
0.0218138 -0.103638
0.0193829 -0.110107
0.013669 -0.104747
0.0164462 -0.100507
0.0245878 -0.116209
-0.0217813 -0.104212
-0.0243032 -0.126063
-0.0199911 -0.113218
-0.0170395 -0.103427
-0.0154482 -0.110229
-0.024205 -0.116756
-0.0210295 -0.142283
-0.0213242 -0.144151
-0.0153071 -0.151233
-0.0269336 -0.136106
-0.0203216 -0.149083
-0.00886904 -0.163558
-0.0105214 -0.157755
-0.0209933 -0.140767
-0.0235112 -0.135091
-0.000194194 -0.172001
0.00428991 -0.178133
-0.00066504 -0.169542
0.008893 -0.187711
0.00847354 -0.184195
-0.0014155 -0.167769
-0.00620845 -0.161286
-0.00519683 -0.164715
0.000365466 -0.175899
-0.0169859 -0.146463
-0.0192666 -0.141673
-0.0193707 -0.14214
-0.0194813 -0.139881
-0.0204614 -0.135181
-0.0214806 -0.135925
-0.0198681 -0.141731
-0.0112868 -0.154474
-0.0138202 -0.151192
0.00823798 -0.159474
0.0040998 -0.166937
0.00886467 -0.160489
-0.00117962 -0.174872
0.0133619 -0.153721
0.0134791 -0.151608
0.00873286 -0.157971
0.0215257 -0.143538
0.0253365 -0.138453
0.0245481 -0.136884
0.0243052 -0.143878
0.0274049 -0.134164
0.0241016 -0.131617
0.0238577 -0.135459
0.0183037 -0.147393
0.0163253 -0.152788
0.0222783 -0.135584
0.0214682 -0.136402
0.0203545 -0.140655
0.0212929 -0.130157
0.0211369 -0.13512
0.0173363 -0.145695
0.0173801 -0.145947
0.0228997 -0.135813
0.0224874 -0.131052
0.0226012 -0.125756
0.0230793 -0.124872
0.0191221 -0.117396
0.0145337 -0.107926
0.0220093 -0.125787
0.0213209 -0.125382
0.0210932 -0.125965
0.0203977 -0.125123
0.0159175 -0.111535
-0.020701 -0.122095
-0.0244679 -0.128771
-0.0233945 -0.129307
-0.0225076 -0.129912
-0.0165796 -0.113608
-0.021511 -0.128867
-0.0211344 -0.130429
-0.0173605 -0.116105
-0.0203338 -0.128884
-0.00943915 -0.157133
-0.00585238 -0.161834
-0.00850006 -0.158625
-0.00879243 -0.158487
-0.00470062 -0.163515
-0.0118452 -0.154453
0.00428911 -0.163951
-7.29166e-06 -0.169789
-0.000628114 -0.171589
0.00087775 -0.168084
-0.00344007 -0.174272
-0.00507263 -0.179729
0.00880185 -0.157502
0.00896826 -0.15742
0.00499348 -0.162567
0.00898966 -0.157244
0.00134196 -0.167341
0.013127 -0.151702
0.0156529 -0.148277
0.0110638 -0.154889
0.00297685 -0.165254
0.00752496 -0.159531
0.0117671 -0.154533
0.0138471 -0.151284
-0.000704296 -0.169888
0.00525824 -0.162513
0.00639968 -0.161278
0.00235843 -0.166001
-0.00124674 -0.167657
0.00257383 -0.172307
-0.00134722 -0.167482
0.00715272 -0.17813
0.00672517 -0.176968
-0.00107894 -0.167645
-0.00153253 -0.16734
0.00407331 -0.186906
0.00701355 -0.198539
0.00836181 -0.192755
0.00306116 -0.204293
0.00782865 -0.207397
0.0121894 -0.197142
-0.000602006 -0.18189
-0.00511685 -0.197054
-0.0002676 -0.200073
-0.00181066 -0.189597
-0.00362293 -0.206216
-0.00498488 -0.175686
-0.00900396 -0.190784
-0.00750861 -0.20194
-0.0155145 -0.166515
-0.0126041 -0.182269
-0.00954245 -0.17201
-0.011704 -0.196397
-0.0163892 -0.18952
0.0153451 -0.206326
0.0133035 -0.212231
0.0174309 -0.214401
-0.0215782 -0.180306
-0.025128 -0.165582
0.0215665 -0.216409
0.016224 -0.201743
0.0190627 -0.164636
0.0139252 -0.163145
0.0141769 -0.176148
0.0117252 -0.19624
0.0163906 -0.189391
-0.0125938 -0.206188
-0.0160967 -0.213875
-0.0115345 -0.213021
-0.0204453 -0.21592
0.0211839 -0.180313
0.0256828 -0.165789
-0.0117593 -0.197761
0.0241141 -0.172041
0.0268597 -0.170489
0.02386 -0.168546
0.0289871 -0.172223
0.00736693 -0.158754
0.00628933 -0.158614
0.0215462 -0.167054
0.0214315 -0.17363
0.0244029 -0.175687
0.0288638 -0.177692
0.0333228 -0.178829
0.0316658 -0.175094
0.0354268 -0.181944
0.00523026 -0.158508
0.00450256 -0.158452
0.0262774 -0.179225
0.0353375 -0.194144
0.0399072 -0.195286
0.0388343 -0.190863
0.0406324 -0.199478
0.00378233 -0.158413
0.0032882 -0.158396
0.0368809 -0.186307
0.0309256 -0.192493
0.0325519 -0.196772