<?xml version="1.0"?>
<VTKFile type="UnstructuredGrid">
  <UnstructuredGrid>
  <Piece NumberOfPoints="3487"  NumberOfCells="1698">
    <Points>
      <DataArray type="Float64" NumberOfComponents="3" format="ascii">
39.9738 48.8528 0
60.0263 48.8525 0
40.6343 48.9835 0
41.2964 49.1053 0
41.9599 49.2181 0
42.6249 49.3219 0
43.2912 49.4168 0
43.9587 49.5026 0
44.6272 49.5795 0
45.2967 49.6474 0
45.9671 49.7062 0
46.6382 49.7559 0
47.3099 49.7967 0
47.982 49.8284 0
48.6545 49.851 0
49.3273 49.8646 0
50.0002 49.8691 0
50.6731 49.8646 0
51.3458 49.851 0
52.0183 49.8283 0
52.6905 49.7966 0
53.3622 49.7558 0
54.0332 49.706 0
54.7036 49.6472 0
55.3731 49.5793 0
56.0416 49.5024 0
56.7091 49.4165 0
57.3754 49.3217 0
58.0403 49.2178 0
58.7039 49.105 0
59.3659 48.9832 0
39.9978 49.8685 0
39.9966 49.6145 0
39.9922 49.3606 0
39.9846 49.1066 0
19.963 69.8337 0
39.9957 50.1301 0
39.9901 50.3917 0
39.9761 50.7701 0
39.9548 51.1482 0
39.9113 51.6945 0
39.8529 52.2393 0
39.742 53.0245 0
39.6 53.8047 0
39.3399 54.9223 0
39.0161 56.0234 0
38.7427 56.8074 0
38.4369 57.5795 0
38.0994 58.3383 0
37.7305 59.0824 0
37.1429 60.1306 0
36.4933 61.1416 0
35.7841 62.1118 0
-0.0194986 49.8162 0
17.3528 69.6593 0
14.7876 69.146 0
12.3114 68.3026 0
9.96615 67.1434 0
7.79229 65.6882 0
11.5205 31.7828 0
0.183452 46.997 0
0.78254 44.2348 0
1.76592 41.5851 0
0 0 0
0.13006 3.72092 0
0.543272 7.42389 0
1.2352 11.0865 0
2.20145 14.6861 0
3.10487 17.3382 0
49.9999 -0.12507 0
5.1116 0 0
10.2232 0 0
15.3348 0 0
100 0 0
57.3956 -0.121155 0
64.7914 -0.106864 0
72.1842 -0.0769912 0
88.4798 31.7825 0
99.87 3.7209 0
99.4568 7.42379 0
98.7649 11.0864 0
97.7986 14.686 0
96.8952 17.3381 0
100.02 49.816 0
99.8166 46.9968 0
99.2175 44.2347 0
98.2341 41.5849 0
80.037 69.8335 0
99.851 52.4265 0
99.3428 54.9926 0
98.5038 57.4703 0
97.3484 59.8174 0
95.8967 61.9935 0
60.0023 49.8682 0
77.5261 69.6787 0
75.0545 69.2102 0
72.6612 68.4355 0
70.3839 67.3665 0
68.8972 66.4648 0
67.4944 65.4374 0
66.186 64.292 0
64.982 63.0374 0
64.2159 62.1115 0
63.5068 61.1413 0
62.8572 60.1303 0
62.2695 59.0821 0
61.5631 57.5793 0
60.9839 56.0231 0
60.6602 54.9221 0
60.4001 53.8044 0
60.2581 53.0242 0
60.0035 49.6142 0
60.0079 49.3602 0
60.0156 49.1063 0
52.8199 30.1216 0
26.5253 36.9443 0
40.3301 24.2457 0
24.9317 22.5073 0
71.9388 22.5364 0
72.7059 44.0064 0
54.8045 24.0708 0
15.3048 47.4755 0
38.3611 49.482 0
23.6078 65.3056 0
7.69891 7.74693 0
91.9428 7.72545 0
29.168 56.947 0
37.1851 51.9546 0
28.0889 47.2534 0
29.7281 48.2145 0
71.515 46.7378 0
30.9867 49.1127 0
70.5142 48.2164 0
31.6355 45.6973 0
30.8871 47.154 0
70.064 46.7255 0
68.984 45.0476 0
31.2912 50.2083 0
30.9042 51.4323 0
28.1883 49.2118 0
45.3071 41.3268 0
53.8447 40.948 0
56.0291 40.4969 0
73.1271 47.4943 0
70.1139 49.4576 0
68.3343 42.4749 0
32.3094 42.8049 0
26.1365 45.7355 0
27.6762 44.7382 0
30.3028 43.3642 0
70.4148 42.6748 0
72.6768 46.0037 0
44.848 43.1195 0
51.4309 42.026 0
55.4109 42.6125 0
32.4503 49.1478 0
68.5547 49.6928 0
39.4748 42.1111 0
35.4376 43.429 0
32.8941 46.5954 0
33.5771 48.3441 0
67.1039 48.2895 0
67.983 46.5264 0
65.075 43.0925 0
60.4214 41.7488 0
32.3679 51.4677 0
28.2169 51.0719 0
41.7753 37.3322 0
46.8222 37.7371 0
52.0496 39.9104 0
58.6808 39.28 0
26.6062 51.9705 0
24.3008 50.4051 0
74.2266 50.0106 0
71.1648 50.7109 0
69.1418 52.2906 0
67.9166 52.4232 0
59.7661 36.3993 0
66.5062 40.7191 0
34.1045 41.0954 0
36.0205 35.83 0
23.1839 47.2332 0
21.6457 43.3333 0
28.3507 41.8468 0
74.3179 44.7631 0
76.6361 48.6179 0
43.0529 43.7076 0
46.2678 42.9932 0
49.968 43.0412 0
48.4324 42.824 0
51.7634 44.0789 0
54.089 44.1947 0
52.9065 44.4903 0
56.2737 43.7434 0
33.8817 49.4398 0
33.7829 50.9542 0
66.5363 51.7704 0
66.5954 49.7783 0
41.8305 43.9452 0
40.7011 43.683 0
38.4585 43.2908 0
37.1402 43.8966 0
35.345 45.6062 0
34.3254 46.8871 0
66.0239 46.6114 0
65.0198 45.3366 0
63.1919 43.5807 0
61.7064 43.1307 0
58.8802 43.5435 0
57.5404 43.8595 0
33.3959 52.1784 0
29.1675 53.7936 0
40.8301 31.0531 0
50.8856 36.051 0
55.6699 34.3328 0
23.5617 53.5211 0
76.9171 51.9891 0
70.2374 53.3995 0
66.4066 53.0122 0
65.4779 35.2143 0
30.9467 34.6312 0
19.4472 47.3578 0
26.1249 40.0826 0
72.0092 34.151 0
72.0557 41.4346 0
77.4848 45.3689 0
43.1662 45.1499 0
45.8087 44.7859 0
48.7645 44.8769 0
51.4435 45.5055 0
53.7693 45.6213 0
56.2186 45.4418 0
34.9098 50.1505 0
65.0854 50.3671 0
40.8142 45.1252 0
38.3664 45.4687 0
36.0283 47.3552 0
64.1405 47.1001 0
61.6507 45.3755 0
58.8253 45.2418 0
36.0683 52.4247 0
34.9175 53.189 0
33.5024 53.7023 0
31.9026 55.4966 0
26.0953 58.972 0
22.9984 57.3783 0
32.3918 22.7487 0
47.0357 26.7395 0
63.1426 23.0962 0
19.9909 55.0887 0
80.1872 54.3539 0
75.7995 55.859 0
71.9369 56.2081 0
69.0902 55.526 0
65.7738 54.0207 0
64.098 53.8635 0
68.1589 29.0516 0
26.7705 30.1388 0
17.24 51.8203 0
14.6003 42.5126 0
22.3969 34.1192 0
84.8944 46.9369 0
84.7193 52.0944 0
75.1734 37.9922 0
81.2132 44.006 0
42.4559 46.4806 0
41.4152 46.2891 0
44.965 46.3259 0
43.6786 46.2429 0
47.7359 46.2671 0
46.3851 46.1996 0
50.62 46.5804 0
49.2719 46.4843 0
53.0509 46.9756 0
51.7632 46.9918 0
55.5136 46.588 0
54.2336 46.68 0
58.0621 46.542 0
56.7804 46.7041 0
36.3732 48.6779 0
36.0266 49.6801 0
35.9278 51.1948 0
63.3853 52.1285 0
63.829 51.1158 0
63.8882 49.1233 0
63.8373 48.2201 0
40.2857 46.0267 0
39.37 46.2066 0
38.0514 46.8122 0
37.3929 47.397 0
62.8332 46.9452 0
62.0175 46.6201 0
60.5318 46.1704 0
59.4021 46.2258 0
38.0596 52.6244 0
36.1747 53.9489 0
34.0729 56.8126 0
29.5967 59.8862 0
22.8716 61.4393 0
21.7365 15.4454 0
39.963 16.2705 0
48.9009 11.5565 0
56.9445 17.0027 0
76.6474 15.6856 0
15.634 57.1405 0
84.5248 57.5761 0
73.4131 59.5535 0
66.5213 55.6819 0
62.457 53.6328 0
82.9394 7.85212 0
79.7455 22.649 0
16.3091 7.93298 0
18.3453 22.3622 0
10.719 46.8407 0
16.5773 36.0593 0
15.5177 30.4542 0
89.4074 49.7187 0
83.3149 31.2996 0
81.5773 39.3584 0
41.9275 47.3822 0
44.2549 47.6567 0
46.8924 47.8071 0
49.5915 47.9707 0
52.2274 48.0506 0
54.7952 47.9424 0
57.3571 47.6883 0
37.3913 49.7222 0
37.9193 51.3942 0
62.1879 50.8847 0
62.5807 48.9687 0
39.971 47.3706 0
38.3966 48.1352 0
38.5118 48.9052 0
61.7651 48.604 0
61.7142 47.7403 0
59.7687 47.4708 0
38.889 51.1542 0
61.3481 51.0889 0
39.1969 52.9344 0
38.4627 53.4946 0
38.1708 54.6039 0
37.0201 55.368 0
36.5164 57.1417 0
34.8687 58.6653 0
33.3619 60.5235 0
30.7462 62.6352 0
27.9868 64.7882 0
27.168 7.86279 0
38.6557 8.40514 0
59.877 8.63074 0
71.7679 7.94592 0
19.2333 64.7523 0
14.9365 63.0199 0
10.7368 60.2332 0
6.28909 57.1908 0
5.99731 51.2575 0
94.2362 52.355 0
93.3202 57.4094 0
89.3355 60.7529 0
84.583 63.2636 0
79.4756 64.9336 0
74.5774 63.9645 0
70.2698 62.681 0
66.8334 61.2256 0
65.2196 58.5526 0
62.7196 57.2248 0
62.0768 55.6954 0
61.7849 54.5861 0
61.0721 52.851 0
93.4893 14.5606 0
89.7946 20.7449 0
86.1113 25.1046 0
6.25714 14.5533 0
13.0084 24.567 0
9.7904 20.7335 0
5.75919 45.6889 0
5.65343 40.7449 0
12.3007 34.791 0
94.2298 47.2353 0
88.1203 37.1428 0
93.3594 42.5051 0
41.0914 48.148 0
40.4304 48.0217 0
42.1324 48.3395 0
43.4634 48.5381 0
42.7966 48.4478 0
44.75 48.6211 0
46.0897 48.7478 0
45.419 48.6935 0
47.4407 48.8153 0
48.7853 48.8696 0
48.1126 48.8515 0
50.1335 48.9657 0
51.479 48.9475 0
50.8064 48.9657 0
52.7668 48.9313 0
54.1093 48.8408 0
53.4387 48.8951 0
55.3895 48.7488 0
56.7254 48.586 0
56.0585 48.6764 0
58.0072 48.4239 0
59.3325 48.1894 0
58.6714 48.3156 0
39.3743 51.6062 0
39.3234 52.1517 0
60.9457 52.0683 0
60.8948 51.5228 0
38.0144 50.4844 0
39.1349 49.6675 0
61.7919 50.0759 0
61.816 49.5073 0
60.9762 49.7113 0
39.5145 48.2015 0
39.1705 48.3205 0
60.9493 48.2789 0
60.4624 48.1338 0
39.4695 50.6962 0
60.4987 50.7139 0
39.491 50.0563 0
39.4871 50.318 0
60.481 50.3357 0
60.4772 50.0741 0
39.6418 49.4795 0
39.6297 48.9717 0
39.639 49.2255 0
60.5013 49.5053 0
60.5041 49.2514 0
60.5133 48.9976 0
61.0003 49.1427 0
39.2857 49.0907 0
60.952 50.28 0
38.9841 50.2443 0
60.8985 47.4152 0
39.0551 47.5504 0
62.6317 49.8719 0
37.0446 50.7246 0
61.7442 51.8977 0
38.7938 52.0641 0
58.6388 47.5262 0
56.0753 47.8504 0
53.5151 48.0343 0
50.9397 48.0668 0
48.2433 47.8746 0
45.5414 47.7396 0
42.9683 47.5736 0
40.8868 47.1906 0
89.1531 44.8695 0
10.9247 40.9942 0
13.2813 16.2054 0
85.8812 16.4152 0
63.1698 55.3679 0
68.9177 58.5411 0
78.9438 59.9452 0
89.2908 55.0038 0
11.7705 52.95 0
19.2342 59.7731 0
66.7168 15.8134 0
30.7542 15.5299 0
26.3571 62.2103 0
32.1619 58.055 0
35.0239 54.7131 0
37.3254 53.1846 0
62.5299 48.0654 0
37.7379 48.7199 0
75.9488 28.7412 0
20.5044 28.6477 0
47.914 19.3583 0
60.1652 44.9255 0
63.1365 45.8252 0
37.0478 46.0742 0
39.6847 44.8628 0
65.1448 48.3748 0
65.0264 52.3594 0
34.811 51.665 0
35.0084 48.636 0
57.4854 45.5579 0
54.9518 45.3257 0
52.5867 45.9169 0
50.3003 45.0941 0
47.2287 44.6597 0
44.3887 44.9121 0
41.9437 45.3875 0
74.3469 42.7662 0
80.2636 48.9609 0
17.9965 43.413 0
21.3129 50.8721 0
34.4358 29.7718 0
59.9896 30.3253 0
67.7869 53.6649 0
73.3997 53.1063 0
54.4632 38.8325 0
46.5069 32.9876 0
26.2368 55.4771 0
31.9808 52.6918 0
69.7652 40.1023 0
30.9766 40.4721 0
57.5954 42.1612 0
63.2475 41.3362 0
66.9032 44.8482 0
33.6422 45.1384 0
37.2323 41.7191 0
41.7173 42.503 0
68.0463 51.1816 0
32.7548 50.2435 0
53.2262 43.0636 0
49.6358 40.9883 0
74.2889 46.7602 0
25.724 43.2209 0
71.9652 48.2285 0
26.5491 48.2506 0
69.0632 48.2043 0
32.1457 48.0522 0
71.0649 45.247 0
29.6285 46.256 0
29.8275 50.1731 0
88.1597 34.4779 0
96.886 39.1011 0
91.3032 35.8524 0
92.2287 38.7192 0
96.0832 37.9371 0
88.4955 40.8851 0
3.11408 39.1012 0
11.8636 33.2458 0
9.99972 35.1273 0
3.91689 37.9373 0
8.31722 37.6359 0
11.6901 37.1376 0
11.3992 22.6507 0
10.9821 26.5143 0
9.37299 24.5994 0
11.8571 29.0083 0
4.15662 19.9342 0
5.3534 22.4659 0
8.23992 22.8281 0
11.5355 18.4688 0
13.1442 20.3865 0
8.02327 17.6445 0
6.97304 20.3342 0
5.20621 17.2429 0
6.6912 24.9251 0
7.78692 26.7207 0
4.22906 14.6198 0
9.76867 15.38 0
87.9532 22.9251 0
90.4196 24.6047 0
88.5778 26.7822 0
91.5527 22.8336 0
95.8434 19.9341 0
94.6466 22.4658 0
87.7254 29.3259 0
[...]
    <PointData>
      <DataArray type="Float64" NumberOfComponents="2" Name="Displacement" format="ascii">
-0.000356312 -0.131722
0.000552562 -0.132048
-6.49289e-05 -0.131538
0.000141135 -0.131355
0.000250949 -0.131229
0.000327202 -0.131124
0.000373065 -0.131046
0.000401719 -0.130991
0.000411553 -0.130945
0.000409733 -0.130912
0.000396254 -0.130892
0.000374551 -0.130882
0.000344391 -0.130874
0.000308642 -0.130872
0.000267789 -0.130877
0.000224 -0.130887
0.000177591 -0.130896
0.000130624 -0.130909
8.41703e-05 -0.130927
3.96958e-05 -0.13095
-1.18117e-06 -0.130973
-3.75978e-05 -0.131002
-6.77541e-05 -0.131039
-9.04411e-05 -0.131084
-0.000102117 -0.131134
-0.000103268 -0.131198
-8.98778e-05 -0.131278
-6.07211e-05 -0.131377
3.42467e-06 -0.131487
9.57194e-05 -0.131635
0.000269739 -0.131838
-0.00217751 -0.131502
-0.00175375 -0.131514
-0.00133281 -0.13154
-0.000897016 -0.131605
-0.0370018 -0.166273
-0.00259003 -0.131507
-0.00300413 -0.131521
-0.00360885 -0.131553
-0.0042201 -0.131599
-0.00510887 -0.13169
-0.00601031 -0.13181
-0.00733506 -0.132033
-0.00867887 -0.132315
-0.010646 -0.132831
-0.012629 -0.133472
-0.0140605 -0.134011
-0.0154862 -0.134615
-0.0168983 -0.135288
-0.0182908 -0.136021
-0.0202577 -0.137189
-0.0221602 -0.138474
-0.0239783 -0.139871
-0.0194986 -0.183813
-0.0366831 -0.16955
-0.0359949 -0.172467
-0.0350296 -0.174992
-0.0338454 -0.177132
-0.0325256 -0.178918
0.0240864 -0.115016
-0.0163076 -0.183356
-0.012509 -0.182165
-0.00806058 -0.180119
0 0
-0.00920955 -0.00836009
-0.0130286 -0.0138905
-0.0135765 -0.0183626
-0.0113461 -0.0238148
-0.0082654 -0.0290916
-0.000113024 -0.12507
0 0
0 0
0 0
0 0
0.00724374 -0.121155
0.0145738 -0.106864
0.0190297 -0.0769912
-0.023847 -0.115295
0.00924492 -0.00834705
0.0130842 -0.0139383
0.013641 -0.0184375
0.0114173 -0.0239135
0.00833645 -0.0291934
0.0195504 -0.183958
0.0163586 -0.183498
0.0125828 -0.182303
0.00812042 -0.180283
0.0369769 -0.166503
0.0220786 -0.184036
0.0242581 -0.18377
0.0261985 -0.183308
0.0279369 -0.182599
0.0295634 -0.18171
0.00230955 -0.131837
0.0368638 -0.163053
0.0362631 -0.159373
0.0351191 -0.155541
0.0334098 -0.151665
0.0318829 -0.149019
0.0300865 -0.146443
0.0280227 -0.143981
0.0257211 -0.141665
0.0239972 -0.140175
0.0221844 -0.138783
0.0202876 -0.137502
0.0183265 -0.136338
0.0155341 -0.134942
0.0126873 -0.133792
0.0107121 -0.133158
0.00875777 -0.132649
0.0074199 -0.132367
0.00189836 -0.131854
0.00148929 -0.131884
0.00105738 -0.131949
-0.00252568 -0.127526
0.0110722 -0.126957
0.00873658 -0.122364
0.0147054 -0.0990968
-0.0148705 -0.104993
-0.00231707 -0.13754
-0.00452537 -0.125496
-0.0105205 -0.155482
-0.00172768 -0.133586
-0.0304904 -0.160648
-0.00977083 -0.017789
0.00960024 -0.0181258
-0.0160072 -0.148872
-0.00574021 -0.135738
-0.00173265 -0.140944
-0.0024154 -0.140725
0.000949764 -0.140311
-0.00320413 -0.140537
0.00260452 -0.141214
0.00146095 -0.136746
-0.000578003 -0.138716
0.00041677 -0.139255
-0.00200033 -0.136767
-0.0046626 -0.141241
-0.0066268 -0.14268
-0.00447411 -0.143146
0.00222719 -0.130044
-0.0017511 -0.13018
-0.00294001 -0.130159
0.00269829 -0.142486
0.00419982 -0.14215
-0.00498594 -0.133817
0.00476511 -0.133604
-0.000454574 -0.140385
0.00155353 -0.138033
0.003961 -0.13501
-0.00456061 -0.134791
0.000400733 -0.14021
0.00191645 -0.130341
-0.000499948 -0.13029
-0.00198804 -0.130502
-0.00276109 -0.139246
0.00395847 -0.140932
0.00423759 -0.130759
0.00413034 -0.132795
0.000666559 -0.136718
-0.00134833 -0.1376
0.00157212 -0.138441
-0.000434142 -0.137581
-0.00434923 -0.133105
-0.00428968 -0.130942
-0.00616566 -0.141151
-0.00720114 -0.145118
0.0053128 -0.128934
0.00211266 -0.129362
-0.00100392 -0.129974
-0.00474182 -0.129945
-0.00932195 -0.147753
-0.00824864 -0.14838
0.00691269 -0.146645
0.00646576 -0.144408
0.00803664 -0.143717
0.00781694 -0.142447
-0.00650507 -0.128826
-0.00657365 -0.13167
0.0062475 -0.131542
0.00914485 -0.127529
-0.00425491 -0.145028
0.000726136 -0.139645
0.0054584 -0.133879
-0.000641218 -0.139561
0.00625523 -0.147188
0.00229238 -0.130526
0.00145024 -0.130317
0.000116612 -0.130393
0.000687375 -0.130327
-0.000421204 -0.130565
-0.00109144 -0.130649
-0.00069405 -0.130644
-0.00189626 -0.130729
-0.00273485 -0.138135
-0.00494976 -0.139273
0.00637842 -0.140446
0.00345277 -0.139135
0.0025424 -0.130714
0.00299522 -0.1309
0.00380236 -0.131463
0.00359731 -0.132272
0.00213583 -0.134272
0.000620572 -0.13589
-0.000751594 -0.13625
-0.00225322 -0.134638
-0.00375959 -0.13259
-0.00381999 -0.131785
-0.00279924 -0.131082
-0.0022349 -0.130889
-0.00694368 -0.140491
-0.0109605 -0.146586
0.00772274 -0.125894
-0.000547724 -0.129187
-0.00429626 -0.128569
-0.0132437 -0.152904
0.0113448 -0.151964
0.0101741 -0.145849
0.00829701 -0.141047
-0.0101589 -0.127034
0.0120347 -0.125016
-0.00704804 -0.149259
0.00730422 -0.131873
-0.0132035 -0.123338
-0.00579682 -0.13373
0.00193977 -0.142876
0.00166828 -0.130709
0.0011817 -0.13055
0.000429851 -0.130589
-0.000199131 -0.130713
-0.000679886 -0.130794
-0.00123088 -0.13093
-0.00345373 -0.137578
0.00387684 -0.138001
0.00216283 -0.131137
0.00228988 -0.132292
0.000404501 -0.134847
-0.000522521 -0.135145
-0.00221461 -0.132595
-0.00185384 -0.131353
-0.00669079 -0.137364
-0.00817531 -0.13918
-0.0093605 -0.141254
-0.0127694 -0.144341
-0.0202806 -0.154321
-0.0191264 -0.157284
0.0138329 -0.112161
0.00274485 -0.126314
-0.0112933 -0.118776
-0.0174516 -0.15906
0.0165968 -0.158755
0.01639 -0.154696
0.0152645 -0.150096
0.0131749 -0.145952
0.0097823 -0.140771
0.00918494 -0.138425
-0.0138703 -0.119158
0.015694 -0.116124
-0.0148366 -0.158958
-0.00372482 -0.147041
0.0144928 -0.120799
0.00998113 -0.155122
0.016508 -0.162393
-0.00973571 -0.128851
0.00246708 -0.144047
0.00120663 -0.130931
0.00141286 -0.131111
0.00096168 -0.130731
0.00115948 -0.130783
0.000532409 -0.130714
0.000770673 -0.130699
2.53815e-05 -0.130792
0.000254095 -0.130756
-0.00031206 -0.130888
-0.000127928 -0.130851
-0.000723188 -0.130981
-0.000528758 -0.130913
-0.0010311 -0.1313
-0.000829887 -0.131112
-0.00108188 -0.135279
-0.00250698 -0.136154
-0.00476509 -0.137012
0.00620626 -0.13685
0.00469493 -0.136996
0.00184882 -0.136077
0.000693633 -0.135533
0.00170721 -0.131445
0.00168018 -0.131915
0.00121064 -0.13296
0.00058044 -0.133729
-0.000856931 -0.134023
-0.00122101 -0.133261
-0.00153228 -0.132175
-0.00136675 -0.131657
-0.00674264 -0.134677
-0.00920841 -0.137765
-0.01451 -0.141854
-0.0207364 -0.149825
-0.0250251 -0.160179
0.00866284 -0.0726604
0.007417 -0.119381
0.00048227 -0.126251
-0.00545785 -0.123101
-0.0101889 -0.0784142
-0.0222751 -0.166795
0.0228842 -0.167571
0.0210588 -0.154252
0.0127397 -0.142561
0.00857477 -0.135972
0.001168 -0.0320294
-0.012875 -0.0911736
-0.0019356 -0.0306512
0.0111054 -0.0862265
-0.0131052 -0.1633
0.0111015 -0.125967
0.0191755 -0.108964
0.0166202 -0.167285
-0.0185608 -0.112347
-0.00538046 -0.133832
0.000823687 -0.131092
0.000688989 -0.130877
0.000481239 -0.130826
0.000192543 -0.130861
-8.95359e-05 -0.130927
-0.000321745 -0.131036
-0.000479613 -0.131271
-0.00226064 -0.134731
-0.00473907 -0.134609
0.00405512 -0.134928
0.00136425 -0.134705
0.000827281 -0.131734
-1.56981e-05 -0.133125
-0.000891936 -0.133258
0.000737142 -0.133753
-0.000215079 -0.13341
-0.000578466 -0.131919
-0.00426315 -0.13323
0.0042844 -0.133874
-0.00719571 -0.132944
-0.00818662 -0.134198
-0.0101278 -0.13483
-0.0115611 -0.136844
-0.0147735 -0.138023
-0.0176829 -0.141115
-0.0211897 -0.144069
-0.0252135 -0.148923
-0.029153 -0.153875
0.00658775 -0.0769449
0.00252598 -0.115909
-0.00237364 -0.118708
-0.00630662 -0.0828705
-0.0304272 -0.166466
-0.0292073 -0.171178
-0.0272969 -0.174915
-0.0255045 -0.178689
-0.0201087 -0.176252
0.021287 -0.177384
0.0256409 -0.17851
0.0278242 -0.175401
0.0293849 -0.170911
0.0304414 -0.165057
0.0281945 -0.157867
0.0254378 -0.150864
0.0224939 -0.144837
0.0175318 -0.141538
0.0149223 -0.137024
0.0121363 -0.135712
0.0101619 -0.135073
0.00715318 -0.133698
0.00923938 -0.0322407
-0.000148915 -0.0583074
-0.010143 -0.0855719
-0.0093668 -0.0315908
0.00834704 -0.0805034
-0.000208051 -0.0566399
-0.0139162 -0.173058
-0.00629924 -0.170088
0.0109129 -0.129852
0.0158922 -0.174281
-0.00386565 -0.140468
0.00922706 -0.168584
0.000409257 -0.131325
0.000378592 -0.131509
0.000466564 -0.131139
0.000503251 -0.130993
0.000491555 -0.131057
0.00050168 -0.130913
0.000447304 -0.130877
0.000478418 -0.130892
0.000365573 -0.130869
0.000262439 -0.130879
0.000315841 -0.130873
0.000150854 -0.130902
3.79271e-05 -0.130933
9.42098e-05 -0.130917
-6.04126e-05 -0.130975
-0.00014918 -0.131036
-0.000107204 -0.131004
-0.000203685 -0.131119
-0.000228074 -0.131249
-0.000221023 -0.131179
-0.000190338 -0.131435
-0.000107619 -0.131734
-0.000156201 -0.131568
-0.0049769 -0.132548
-0.00587756 -0.132672
0.00584737 -0.133414
0.00495412 -0.133277
-0.0032874 -0.13426
-0.0018775 -0.132728
0.00276329 -0.134232
0.00193212 -0.134102
0.00210141 -0.133183
0.000139153 -0.132099
-5.17683e-05 -0.132445
0.000201964 -0.132867
-2.91435e-05 -0.132389
-0.00349898 -0.132337
0.00364569 -0.132619
-0.00247815 -0.132275
-0.00289672 -0.132291
0.00304984 -0.132573
0.00263678 -0.132556
-0.00153417 -0.132058
-0.000675743 -0.13209
-0.00112061 -0.132068
0.00173558 -0.132574
0.00133242 -0.132568
0.000923465 -0.132568
0.00126107 -0.133116
-0.000965313 -0.132475
0.00298077 -0.133227
-0.00280137 -0.132985
-0.000592848 -0.132647
0.000645256 -0.13239
0.00260997 -0.135121
-0.00381531 -0.135505
0.00562045 -0.13457
-0.00575603 -0.133485
-0.000540708 -0.131508
-0.000405741 -0.13113
-0.000212658 -0.130974
4.73213e-05 -0.130893
0.000342587 -0.130837
0.00060144 -0.130836
0.000744114 -0.130968
0.000935019 -0.131329
0.0105022 -0.160337
-0.0045646 -0.153123
-0.000884654 -0.0529534
-0.000363502 -0.0559903
0.0116451 -0.13746
0.0181576 -0.14731
0.0235587 -0.161977
0.0221777 -0.172046
-0.0195068 -0.168506
-0.0239934 -0.164028
-0.0112869 -0.10737
0.0120047 -0.100383
-0.0252688 -0.155609
-0.0170433 -0.145213
-0.0107077 -0.139677
-0.00775776 -0.135879
0.000262032 -0.134271
-0.000831828 -0.133976
-0.0166253 -0.111497
0.0172135 -0.107666
0.00177539 -0.12574
-0.00232056 -0.131758
-0.00188478 -0.133704
0.0018063 -0.133382
0.00254075 -0.131483
0.00117571 -0.136803
0.00690473 -0.13901
-0.00575949 -0.138549
-0.0013546 -0.136532
-0.0014307 -0.131103
-0.00100185 -0.130819
-0.000390435 -0.130782
4.39347e-05 -0.130644
0.000846527 -0.13054
0.00148348 -0.130596
0.00180626 -0.130904
-0.00345565 -0.136528
0.00920437 -0.151756
-0.00209903 -0.143521
-0.0107935 -0.152356
0.0124084 -0.121712
-0.00845161 -0.125649
0.00974267 -0.14313
0.0111023 -0.149197
-0.00254186 -0.129796
0.00289687 -0.127942
-0.0148294 -0.151553
-0.00819159 -0.142466
-0.00744859 -0.131568
0.00713262 -0.131594
-0.00301665 -0.130597
-0.0054306 -0.131389
-0.00257707 -0.135386
0.00243862 -0.135003
0.00514376 -0.131135
0.00326723 -0.130449
0.00595962 -0.141664
-0.00421546 -0.139829
-0.0010592 -0.130479
0.000271591 -0.130089
0.00220759 -0.142426
0.00293197 -0.136908
0.00321899 -0.142431
-0.00385624 -0.143448
0.00206555 -0.140005
-0.00137492 -0.138571
-0.00119917 -0.138213
0.000192678 -0.138655
-0.00517215 -0.142624
-0.0112983 -0.13091
0.00296878 -0.176815
-0.00551576 -0.153753
0.00199062 -0.161214
0.000112235 -0.174495
0.00395666 -0.151307
-0.00291026 -0.176687
0.0164085 -0.123902
0.00801435 -0.144622
-2.04223e-05 -0.174339
0.000647646 -0.15759
0.00376677 -0.141044
0.00387078 -0.0681274
0.00944467 -0.0792266
0.00507122 -0.0654697
0.0154141 -0.0941953
-0.004444 -0.035572
8.34558e-05 -0.0434763
0.00153871 -0.0560693
-0.000919049 -0.0554428
0.00301899 -0.066368
-0.00528461 -0.0430019
-0.00279393 -0.0457948
-0.00757545 -0.0344217
0.00503972 -0.0530956
0.00885516 -0.061919
-0.0105889 -0.0276016
-0.00569281 -0.0415371
-0.0049388 -0.0715991
-0.00518869 -0.0666537
-0.0102964 -0.0826472
-0.00163327 -0.0571237
0.00450005 -0.0356775
-5.7874e-05 -0.0436146
-0.0166635 -0.098259
-0.00447934 -0.0703898
0.000100851 -0.057789
0.00505891 -0.044115
0.00757822 -0.0348796
0.00271985 -0.0466824
0.0105892 -0.0279585
-0.00502547 -0.0532775
-0.00882282 -0.0621535
0.00509389 -0.0432854
-0.003935 -0.105896
0.00308365 -0.113878
0.00348984 -0.0971323
0.00152875 -0.124419
0 0
0 0
-0.00329882 -0.0497261
-0.00945555 -0.0966226
-0.00703105 -0.113218
0.00425727 -0.101694
-0.00337265 -0.0947068
-0.00343372 -0.111982
0.00350423 -0.0451779
0 0
-0.0187891 -0.0767113
-0.00193377 -0.123702
0.00781297 -0.108304
0.0097452 -0.0896809
-0.0133277 -0.123013
-0.0135601 -0.12351
-0.00473826 -0.13524
-0.020687 -0.112835
0.00311359 -0.14612
-0.0144321 -0.121324
-0.0172228 -0.113975
0.0174249 -0.116788
0.0111368 -0.12684
0.0184295 -0.117277
0.00313687 -0.137804
0.0209546 -0.110322
0.0182263 -0.109233
0.0164251 -0.117407
0.0158621 -0.099818
0.0161583 -0.0992427
0.00972443 -0.0840489
0.00505875 -0.0698742
0.0149597 -0.0978981
-0.0162552 -0.10229
-0.0115775 -0.0888721
-0.0172995 -0.102865
-0.00692406 -0.0744058
-0.0158023 -0.102527
-0.00501 -0.0565004
-0.00981328 -0.0775027
-0.00548063 -0.0525697
-0.0123095 -0.0937908
0.00181387 -0.0178625
0.000827622 -0.0445809
-0.00586877 -0.0666825
-0.00198745 -0.125605
-0.00161801 -0.124968
-0.00484209 -0.121184
-0.000136884 -0.126202
-0.00870264 -0.117211
-0.00207055 -0.125715
0.0011242 -0.125889
0.00355409 -0.123937
0.00578029 -0.117647
0.00216978 -0.123359
0.0101349 -0.111736
0.00492278 -0.123721
0.00346792 -0.0522237
0.00456062 -0.0481027
0.00904473 -0.07148
-0.0021515 -0.0173227
0.0117873 -0.0867758
0.00417816 -0.0624003
-0.00185765 -0.042404
-0.0138659 -0.122319
-0.00982621 -0.128274
-0.00430243 -0.135489
-0.00663847 -0.13284
0.0168237 -0.114644
0.0106437 -0.126645
0.00386007 -0.135689
0.00433282 -0.135074
-0.0154362 -0.118013
-0.0118595 -0.125827
-0.0086085 -0.130438
-0.0104908 -0.127853
-0.011838 -0.125415
-0.0122849 -0.123597
-0.0139993 -0.120803
-0.00970605 -0.126075
-0.0114563 -0.122964
-0.0155611 -0.115268
-0.00933886 -0.128877
0.0125572 -0.12311
0.0109586 -0.124917
0.0106579 -0.126454
0.008706 -0.129115
0.0072248 -0.129544
0.00982818 -0.128362
-0.00761708 -0.127361
-0.00840428 -0.128112
-0.00784996 -0.129568
-0.00631499 -0.12988
-0.00637414 -0.127425
-0.00552722 -0.12866
-0.00446131 -0.129453
-0.00340999 -0.129265
0.00252682 -0.128726
0.00108571 -0.128695
0.000867312 -0.129291
-6.45211e-05 -0.129683
-0.00166352 -0.129514
0.00108834 -0.129766
0.007267 -0.128384
0.0087685 -0.126516
0.00659044 -0.127592
0.0101993 -0.124154
0.00530421 -0.127119
0.00435446 -0.128399
0.00560347 -0.129768
0.003716 -0.129155
0.00225591 -0.129717
0.00281945 -0.130184
0.00127553 -0.130056
0.00366932 -0.129605
0.00437824 -0.129778
0.00607999 -0.00922821
0.00598315 -0.0236399
0.0046484 -0.0123028
0.00634477 -0.0347454
0 0
0 0
0.00745802 -0.0074641
0.0126903 -0.0205637
0.0101929 -0.0256749
0.0114727 -0.0149535
-0.0126861 -0.0728479
-0.015362 -0.0791786
-0.011524 -0.0148177
-0.0103698 -0.0251673
-0.0126924 -0.0203368
-0.00696391 -0.0332453
0.0127386 -0.0725333
0.0153685 -0.07876
-0.00750567 -0.00743126
-0.00482414 -0.0120927
-0.00641579 -0.0229842
-0.00612602 -0.00913759
-0.014725 -0.106701
-0.00743831 -0.121032
-0.00812576 -0.123012
-0.00524096 -0.12435
-0.00854433 -0.120787
-0.00129758 -0.12606
-0.0117043 -0.1137
-0.0101512 -0.122541
-0.00674458 -0.125312
-0.0137351 -0.112564
-0.0149812 -0.112863
-0.0129297 -0.118335
-0.0158981 -0.10756
-0.0134962 -0.104901
-0.0111506 -0.0842961
-0.0145946 -0.0981816
-0.0133217 -0.093435
0.0121732 -0.087164
0.0134805 -0.0928936
0.00944884 -0.0790281
0.0158706 -0.102674
0.0136944 -0.0980436
0.0151745 -0.113095
0.0160368 -0.108319
0.0148572 -0.105888
0.0167214 -0.111991
0.0131754 -0.10655
0.0134929 -0.117241
0.0143308 -0.119005
0.00843556 -0.124044
0.00585821 -0.124889
0.00548155 -0.126003
0.00532474 -0.124333
0.00232645 -0.125852
0.00289136 -0.126993
0.0109344 -0.121573
0.0110262 -0.115321
0.00843066 -0.120737
0.0116454 -0.118186
0.0141118 -0.121627
0.0127806 -0.124142
0.0155694 -0.11797
0.00785947 -0.130842
0.0140944 -0.12114
0.0118272 -0.125763
0.00905076 -0.129657
-0.00145158 -0.128454
-0.0035176 -0.128065
-0.00236949 -0.128984
-0.00558623 -0.126904
0.000316228 -0.127911
-0.00091496 -0.126509
-0.00357702 -0.12648
2.58425e-05 -0.127084
0.00169298 -0.164903
-0.0030277 -0.164497
-0.00220677 -0.170444
-0.00244528 -0.154574
-0.00590586 -0.16161
-0.00474301 -0.173421
0.00300003 -0.171418
0.00630997 -0.167771
0.00454001 -0.159986
0.00551045 -0.142129
0.00184549 -0.149305
0.00404668 -0.151789
-0.000748288 -0.147647
0.00867359 -0.154728
0.00911094 -0.136853
0.00708585 -0.135879
0.0193158 -0.102119
0.018078 -0.0862668
0.0160704 -0.0916384
0.0113325 -0.0871644
0.0136291 -0.0836559
0.0203782 -0.0967192
-0.0180519 -0.0867429
-0.0201589 -0.104889
-0.0165769 -0.094223
-0.0141235 -0.086083
-0.0128126 -0.09172
-0.0200622 -0.0971735
-0.0174465 -0.118376
-0.0176894 -0.119924
-0.0126964 -0.125812
-0.0223374 -0.113235
-0.016855 -0.124017
-0.00734519 -0.136051
-0.00872209 -0.131234
-0.0174183 -0.117117
-0.0195053 -0.112392
-0.000143063 -0.143085
0.00358186 -0.148188
-0.000538624 -0.141048
0.00741114 -0.15615
0.00705764 -0.153233
-0.00116563 -0.139581
-0.00514666 -0.134187
-0.00429967 -0.137025
0.000326764 -0.14632
-0.0141005 -0.121863
-0.0159949 -0.117876
-0.0160777 -0.118262
-0.0161766 -0.116384
-0.0169884 -0.112469
-0.0178272 -0.113088
-0.0164877 -0.117921
-0.00936647 -0.128525
-0.0114717 -0.125798
0.00682729 -0.132669
0.00338652 -0.138869
0.00734488 -0.133506
-0.00100067 -0.14547
0.0110811 -0.12788
0.0111818 -0.126133
0.00724065 -0.131424
0.0178564 -0.119415
0.0210154 -0.115188
0.020363 -0.113884
0.0201596 -0.119692
0.0227274 -0.11162
0.0199941 -0.109501
0.0197921 -0.112699
0.0151833 -0.12262
0.0135389 -0.127098
0.018486 -0.112803
0.0178164 -0.113485
0.0168907 -0.117025
0.0176735 -0.108285
0.0175442 -0.112418
0.0143867 -0.12122
0.0144211 -0.121428
0.0189994 -0.112994
0.0186596 -0.10903
0.0187505 -0.104627
0.0191454 -0.103896
0.0158626 -0.0976803
0.0120541 -0.0898019
0.0182611 -0.104651
0.0176921 -0.104313
0.0175049 -0.104797
0.0169307 -0.104096
0.0132112 -0.0927909
-0.0171745 -0.101583
-0.020297 -0.107136
-0.0194088 -0.107579
-0.0186757 -0.108082
-0.0137555 -0.0945232
-0.0178521 -0.107212
-0.0175425 -0.108512
-0.0144129 -0.0965901
-0.0168824 -0.107226
-0.00783442 -0.130741
-0.0048564 -0.134654
-0.007057 -0.131987
-0.00730204 -0.131877
-0.00390469 -0.136062
-0.00983633 -0.128518
0.00355013 -0.136399
-1.83463e-05 -0.141257
-0.000537395 -0.142749
0.000720154 -0.139846
-0.00286883 -0.144989
-0.00423385 -0.149514
0.00730038 -0.13104
0.00744269 -0.130979
0.00414007 -0.135259
0.00745849 -0.130829
0.00110805 -0.139232
0.0108932 -0.126218
0.0129943 -0.123374
0.00918459 -0.128877
0.00246875 -0.137501
0.00624644 -0.13274
0.00977309 -0.128588
0.0114974 -0.12588
-0.000589929 -0.141355
0.00436537 -0.135224
0.00531577 -0.134202
0.00195918 -0.138132
-0.00103168 -0.1395
0.002141 -0.14337
-0.00111781 -0.13936
0.00594627 -0.148212
0.00558804 -0.147251
-0.000897392 -0.139501
-0.00126627 -0.13923
0.00341392 -0.155469
0.00586255 -0.165141
0.00697666 -0.160337
0.00258422 -0.169922
0.00654364 -0.172506
0.0101552 -0.163988
-0.000469512 -0.151293
-0.00420944 -0.163899
-0.000181393 -0.166412
-0.00146718 -0.157698
-0.00296702 -0.171519
-0.00411139 -0.146131
-0.00743945 -0.158682
-0.00619553 -0.167963
-0.0128551 -0.138496
-0.0104317 -0.151598
-0.00789616 -0.143069
-0.00968173 -0.163352
-0.0135741 -0.157631
0.0127804 -0.171624
0.0110901 -0.176528
0.0145156 -0.178334
-0.017884 -0.149966
-0.0208274 -0.13772
0.0179467 -0.180006
0.013505 -0.167819
0.0157993 -0.13693
0.0115394 -0.135698
0.0117391 -0.146506
0.00969865 -0.163221
0.0135751 -0.157524
-0.0104984 -0.171505
-0.013409 -0.177896
-0.00962253 -0.177183
-0.0170171 -0.179599
0.0175566 -0.149972
0.0212894 -0.137891
-0.00979968 -0.164501
0.0200169 -0.14319
0.0222976 -0.1419
0.019805 -0.140285
0.0240654 -0.143342
0.00610347 -0.132144
0.00520886 -0.132027
0.0178824 -0.139045
0.017789 -0.144509
0.0202578 -0.146219
0.023964 -0.147886
0.0276687 -0.148832
0.0262915 -0.145728
0.0294171 -0.15142
0.00432976 -0.131938
0.00372587 -0.131891
0.0218159 -0.149159
0.0293454 -0.161555
0.0331404 -0.162505
0.0322487 -0.158831