<?xml version="1.0"?>
<VTKFile type="UnstructuredGrid">
  <UnstructuredGrid>
  <Piece NumberOfPoints="3487"  NumberOfCells="1698">
    <Points>
      <DataArray type="Float64" NumberOfComponents="3" format="ascii">
39.9741 48.9583 0
60.0259 48.9582 0
40.6344 49.0888 0
41.2963 49.2105 0
41.9597 49.3232 0
42.6246 49.4269 0
43.2909 49.5217 0
43.9583 49.6076 0
44.6269 49.6844 0
45.2964 49.7522 0
45.9668 49.811 0
46.6379 49.8608 0
47.3096 49.9015 0
47.9818 49.9332 0
48.6543 49.9558 0
49.3271 49.9694 0
50 49.974 0
50.673 49.9694 0
51.3458 49.9558 0
52.0183 49.9332 0
52.6905 49.9015 0
53.3622 49.8608 0
54.0333 49.811 0
54.7037 49.7522 0
55.3732 49.6844 0
56.0417 49.6075 0
56.7092 49.5217 0
57.3754 49.4269 0
58.0403 49.3231 0
58.7038 49.2104 0
59.3657 49.0888 0
39.9996 49.9738 0
39.998 49.7198 0
39.9933 49.4659 0
39.9853 49.2121 0
19.9927 69.9669 0
39.9978 50.2355 0
39.9926 50.4971 0
39.979 50.8755 0
39.9582 51.2536 0
39.9155 51.7999 0
39.8578 52.3449 0
39.7479 53.1303 0
39.607 53.9107 0
39.3485 55.0287 0
39.0263 56.1303 0
38.754 56.9147 0
38.4494 57.6873 0
38.1129 58.4466 0
37.7452 59.1913 0
37.1591 60.2405 0
36.5111 61.2525 0
35.8034 62.2238 0
-0.00387562 49.9635 0
17.3822 69.7952 0
14.8165 69.2842 0
12.3395 68.4428 0
9.99332 67.2853 0
7.81839 65.8316 0
11.5011 31.875 0
0.19651 47.1439 0
0.792547 44.3808 0
1.77235 41.7294 0
0 0 0
0.137435 3.72761 0
0.553704 7.43501 0
1.24606 11.1012 0
2.21052 14.7052 0
3.11146 17.3614 0
50 -0.0248537 0
5.1116 0 0
10.2232 0 0
15.3348 0 0
100 0 0
57.3898 -0.0240738 0
64.7797 -0.0212277 0
72.169 -0.0152894 0
88.4989 31.8749 0
99.8626 3.72759 0
99.4463 7.43495 0
98.754 11.1011 0
97.7895 14.7052 0
96.8886 17.3614 0
100.004 49.9635 0
99.8035 47.1439 0
99.2075 44.3808 0
98.2277 41.7294 0
80.0073 69.9669 0
99.8333 52.574 0
99.3233 55.1399 0
98.4828 57.6172 0
97.326 59.9637 0
95.8729 62.1391 0
60.0004 49.9738 0
77.4965 69.8094 0
75.0254 69.3379 0
72.633 68.5601 0
70.3571 67.488 0
68.8716 66.5842 0
67.4702 65.5547 0
66.1635 64.4073 0
64.9614 63.1508 0
64.1966 62.2238 0
63.4889 61.2525 0
62.8409 60.2404 0
62.2548 59.1913 0
61.5507 57.6874 0
60.9737 56.1302 0
60.6515 55.0288 0
60.3931 53.9106 0
60.2521 53.1302 0
60.002 49.7198 0
60.0067 49.4658 0
60.0147 49.212 0
52.8219 30.2238 0
26.5164 37.046 0
40.3231 24.3438 0
24.9199 22.5867 0
71.9507 22.6205 0
72.7078 44.1166 0
54.8081 24.1713 0
15.3132 47.6 0
38.3625 49.589 0
23.6322 65.4343 0
7.70673 7.76118 0
91.9351 7.73996 0
29.1808 57.0662 0
37.1897 52.0633 0
28.0903 47.3663 0
29.73 48.3272 0
71.5143 46.8502 0
30.9892 49.2253 0
70.5121 48.3295 0
31.6343 45.8069 0
30.8876 47.2652 0
70.0637 46.8371 0
68.9856 45.1572 0
31.2949 50.3215 0
30.9095 51.5466 0
28.1919 49.3264 0
45.3053 41.431 0
53.8461 41.0523 0
56.0315 40.6012 0
73.1249 47.6084 0
70.1105 49.5715 0
68.3383 42.5821 0
32.3055 42.912 0
26.1369 45.848 0
27.675 44.8488 0
30.2997 43.4723 0
70.4185 42.7828 0
72.6765 46.116 0
44.8464 43.2239 0
51.4313 42.1304 0
55.4125 42.717 0
32.4525 49.2594 0
68.5515 49.8057 0
39.4714 42.2158 0
35.4343 43.5354 0
32.8936 46.7049 0
33.5782 48.4543 0
67.1026 48.4004 0
67.9834 46.6366 0
65.0785 43.1991 0
60.4248 41.8537 0
32.3728 51.5807 0
28.2227 51.1881 0
41.771 37.4355 0
46.8205 37.8407 0
52.0504 40.0145 0
58.6846 39.3841 0
26.6137 52.0889 0
24.3074 50.524 0
74.221 50.1281 0
71.1596 50.8266 0
69.1353 52.4057 0
67.9103 52.5373 0
59.7713 36.5025 0
66.5115 40.8246 0
34.0995 41.2008 0
36.0131 35.9322 0
23.1873 47.3494 0
21.6451 43.4451 0
28.3463 41.9541 0
74.3184 44.8749 0
76.6311 48.7358 0
43.0511 43.8121 0
46.2666 43.0976 0
49.9679 43.1456 0
48.4318 42.9284 0
51.7637 44.1835 0
54.0899 44.2993 0
52.907 44.5949 0
56.2753 43.8482 0
33.8839 49.5505 0
33.7869 51.0658 0
66.5312 51.8829 0
66.5926 49.8897 0
41.8284 44.0499 0
40.6987 43.7879 0
38.4554 43.3961 0
37.1373 44.0026 0
35.3433 45.7138 0
34.3249 46.9959 0
66.0245 46.7205 0
65.0216 45.4444 0
63.1949 43.6869 0
61.7095 43.2362 0
58.8824 43.6485 0
57.5422 43.9644 0
33.4015 52.291 0
29.1764 53.911 0
40.8239 31.154 0
50.886 36.1545 0
55.6734 34.4358 0
23.5724 53.6436 0
76.908 52.1108 0
70.2292 53.5163 0
66.4 53.1252 0
65.4861 35.3161 0
30.937 34.7313 0
19.4528 47.4774 0
26.1191 40.1883 0
72.0198 34.2498 0
72.0604 41.5417 0
77.4833 45.4834 0
43.1649 45.2546 0
45.8078 44.8905 0
48.7642 44.9815 0
51.4436 45.6102 0
53.7698 45.7261 0
56.2196 45.5467 0
34.9126 50.2607 0
65.0823 50.4776 0
40.8124 45.2303 0
38.3645 45.5746 0
36.028 47.4632 0
64.1409 47.2084 0
61.6525 45.4817 0
58.8268 45.347 0
36.0736 52.5347 0
34.924 53.3005 0
33.51 53.8154 0
31.9128 55.6122 0
26.1115 59.0956 0
23.0138 57.5043 0
32.3807 22.8386 0
47.0335 26.8407 0
63.1517 23.1913 0
20.0049 55.2161 0
80.1739 54.4811 0
75.7864 55.983 0
71.9246 56.3283 0
69.0797 55.6429 0
65.766 54.1335 0
64.0906 53.9743 0
68.17 29.1471 0
26.7579 30.2318 0
17.2519 51.9477 0
14.6033 42.6304 0
22.3852 34.216 0
84.8864 47.0612 0
84.7061 52.2245 0
75.1812 38.0954 0
81.2112 44.1214 0
42.4549 46.5855 0
41.4141 46.3941 0
44.9642 46.4306 0
43.6776 46.3477 0
47.7355 46.3718 0
46.3845 46.3043 0
50.62 46.6852 0
49.2717 46.5891 0
53.0511 47.0805 0
51.7633 47.0966 0
55.5142 46.693 0
54.234 46.7849 0
58.0629 46.6472 0
56.7811 46.8092 0
36.374 48.7863 0
36.0286 49.7892 0
35.9316 51.3046 0
63.3803 52.2381 0
63.8252 51.2255 0
63.8867 49.2323 0
63.8367 48.3287 0
40.2843 46.132 0
39.3686 46.3123 0
38.0505 46.9187 0
37.3925 47.5041 0
62.8338 47.0526 0
62.0185 46.7268 0
60.533 46.2762 0
59.4032 46.3313 0
38.0651 52.7322 0
36.1821 54.0592 0
34.0846 56.9262 0
29.6134 60.0062 0
22.8917 61.5676 0
21.7295 15.5036 0
39.9571 16.3662 0
48.9005 11.6577 0
56.9488 17.1014 0
76.6556 15.7485 0
15.6519 57.2741 0
84.5064 57.7104 0
73.3962 59.677 0
66.5111 55.7961 0
62.4501 53.7417 0
82.9385 7.87778 0
79.7558 22.722 0
16.3106 7.95754 0
18.3363 22.4313 0
10.7295 46.9715 0
16.5684 36.1603 0
15.5023 30.5415 0
89.394 49.8527 0
83.3298 31.3896 0
81.5816 39.4657 0
41.9269 47.4872 0
44.2543 47.7615 0
46.892 47.9119 0
49.5913 48.0755 0
52.2275 48.1554 0
54.7955 48.0473 0
57.3575 47.7935 0
37.3931 49.8302 0
37.9231 51.502 0
62.1847 50.9928 0
62.5796 49.0766 0
39.9703 47.4761 0
38.3966 48.2418 0
38.5125 49.012 0
61.7645 48.7111 0
61.7143 47.8472 0
59.7691 47.5765 0
38.8924 51.2609 0
61.3447 51.1961 0
39.2027 53.0409 0
38.4693 53.6021 0
38.179 54.7118 0
37.0294 55.4776 0
36.5283 57.2523 0
34.8829 58.7783 0
33.3789 60.6389 0
30.7664 62.7545 0
28.0102 64.9115 0
27.1627 7.92446 0
38.6537 8.49802 0
59.8789 8.72586 0
71.7729 8.01234 0
19.2577 64.8857 0
14.96 63.1571 0
10.7587 60.3734 0
6.30955 57.334 0
6.01343 51.3987 0
94.2191 52.4971 0
93.2996 57.5525 0
89.3132 60.8934 0
84.5594 63.4005 0
79.4512 65.0658 0
74.5547 64.0909 0
70.2494 62.8018 0
66.8153 61.3416 0
65.2055 58.666 0
62.7076 57.3346 0
62.0671 55.8041 0
61.7767 54.6943 0
61.0664 52.9581 0
93.4819 14.5864 0
89.7947 20.7916 0
86.1195 25.1732 0
6.26463 14.5786 0
13.0017 24.6315 0
9.79054 20.7789 0
5.77033 45.8276 0
5.65845 40.8812 0
12.2919 34.8951 0
94.2171 47.375 0
88.1235 37.2553 0
93.352 42.6402 0
41.0911 48.2532 0
40.4301 48.1271 0
42.132 48.4445 0
43.463 48.6431 0
42.7962 48.5527 0
44.7496 48.726 0
46.0894 48.8526 0
45.4187 48.7983 0
47.4404 48.9201 0
48.7851 48.9744 0
48.1124 48.9563 0
50.1334 49.0705 0
51.479 49.0524 0
50.8063 49.0705 0
52.7668 49.0362 0
54.1095 48.9457 0
53.4387 49 0
55.3897 48.8538 0
56.7255 48.6912 0
56.0587 48.7815 0
58.0074 48.5292 0
59.3326 48.2949 0
58.6715 48.421 0
39.3783 51.7123 0
39.3281 52.258 0
60.941 52.1752 0
60.8908 51.6295 0
38.017 50.5919 0
39.1364 49.7738 0
61.7896 50.1834 0
61.8145 49.6147 0
60.9745 49.818 0
39.5144 48.3073 0
39.1705 48.4266 0
60.9491 48.3854 0
60.4625 48.2398 0
39.4723 50.8022 0
60.4957 50.8201 0
39.493 50.1623 0
39.4895 50.4239 0
60.4785 50.4419 0
60.475 50.1802 0
39.643 49.5853 0
39.6303 49.0775 0
39.6399 49.3313 0
60.4999 49.6115 0
60.503 49.3575 0
60.5126 49.1038 0
60.9993 49.2493 0
39.2864 49.1968 0
60.9496 50.3867 0
38.9864 50.3508 0
60.899 47.5214 0
39.0546 47.6564 0
62.6296 49.9802 0
37.0477 50.8331 0
61.7397 52.0055 0
38.7984 52.171 0
58.6393 47.6315 0
56.0757 47.9554 0
53.5153 48.1393 0
50.9396 48.1716 0
48.243 47.9794 0
45.5409 47.8444 0
42.9677 47.6786 0
40.886 47.2958 0
89.1447 44.998 0
10.9283 41.1169 0
13.282 16.2478 0
85.8815 16.46 0
63.1604 55.4779 0
68.9031 58.6591 0
78.9249 60.075 0
89.273 55.1417 0
11.7862 53.085 0
19.2535 59.9046 0
66.7259 15.8994 0
30.7445 15.6103 0
26.3774 62.335 0
32.1756 58.1713 0
35.0325 54.825 0
37.3317 53.2935 0
62.5297 48.1729 0
37.7385 48.8272 0
75.9621 28.8305 0
20.4906 28.734 0
47.9126 19.459 0
60.167 45.031 0
63.138 45.9323 0
37.0464 46.181 0
39.6827 44.9682 0
65.1438 48.4844 0
65.0209 52.4708 0
34.8156 51.776 0
35.0095 48.7453 0
57.4865 45.6629 0
54.9526 45.4305 0
52.587 46.0217 0
50.3003 45.1987 0
47.228 44.7642 0
44.3875 45.0168 0
41.9422 45.4924 0
74.3497 42.8756 0
80.2562 49.0825 0
17.9981 43.528 0
21.3216 50.9942 0
34.4259 29.8693 0
59.9963 30.4259 0
67.7791 53.7795 0
73.3908 53.2258 0
54.4652 38.9365 0
46.5046 33.0901 0
26.2487 55.5985 0
31.9874 52.8059 0
69.7712 40.2077 0
30.9708 40.5775 0
57.5978 42.2659 0
63.2519 41.4415 0
66.9053 44.9567 0
33.6403 45.2466 0
37.2282 41.8242 0
41.7147 42.6075 0
68.0415 51.295 0
32.7582 50.3556 0
53.2271 43.1682 0
49.6355 41.0925 0
74.2872 46.8743 0
25.7216 43.3306 0
71.9627 48.3426 0
26.5522 48.3655 0
69.0615 48.3164 0
32.1468 48.1632 0
71.0659 45.3577 0
29.6284 46.3671 0
29.8316 50.2874 0
88.1688 34.5829 0
96.8836 39.2428 0
91.3077 35.9757 0
92.2272 38.8484 0
96.0832 38.077 0
88.4924 41.0063 0
3.11638 39.2428 0
11.8504 33.3451 0
9.99327 35.2432 0
3.91687 38.077 0
8.31667 37.7622 0
11.687 37.2506 0
11.3961 22.7053 0
10.9745 26.5778 0
9.36889 24.6518 0
11.8447 29.0838 0
4.16015 19.9627 0
5.35329 22.5007 0
8.23866 22.873 0
11.5362 18.5132 0
13.1417 20.4397 0
8.02749 17.6789 0
6.97525 20.3708 0
5.21225 17.2705 0
6.68712 24.9676 0
7.77978 26.7703 0
4.23753 14.6419 0
9.77321 15.4133 0
87.9572 22.9824 0
90.4238 24.6581 0
88.5861 26.8484 0
91.554 22.8793 0
95.8399 19.9626 0
94.6467 22.5007 0
87.7388 29.4046 0
86.0006 20.8167 0
[...]
    <PointData>
      <DataArray type="Float64" NumberOfComponents="2" Name="Displacement" format="ascii">
-6.44706e-05 -0.0262192
0.000103042 -0.0262842
-8.65948e-06 -0.0261797
3.10274e-05 -0.0261418
5.226e-05 -0.0261157
6.70102e-05 -0.026094
7.58028e-05 -0.0260779
8.1232e-05 -0.0260666
8.29584e-05 -0.0260571
8.23987e-05 -0.0260503
7.95354e-05 -0.026046
7.50538e-05 -0.0260438
6.89016e-05 -0.0260421
6.16483e-05 -0.0260416
5.33851e-05 -0.0260425
4.45421e-05 -0.0260444
3.51804e-05 -0.0260462
2.5707e-05 -0.0260489
1.63337e-05 -0.0260525
7.34844e-06 -0.0260571
-9.27405e-07 -0.0260617
-8.32794e-06 -0.0260677
-1.44929e-05 -0.0260752
-1.91917e-05 -0.0260845
-2.17212e-05 -0.0260947
-2.21918e-05 -0.0261078
-1.9785e-05 -0.0261241
-1.42927e-05 -0.0261445
-2.00933e-06 -0.0261673
1.57073e-05 -0.0261977
4.91678e-05 -0.0262396
-0.000420543 -0.0261793
-0.00033752 -0.0261812
-0.000255081 -0.0261858
-0.00016982 -0.0261975
-0.0072997 -0.0330596
-0.000501557 -0.0261808
-0.000582934 -0.026184
-0.000701834 -0.0261907
-0.000822091 -0.0262002
-0.000997115 -0.0262188
-0.00117475 -0.0262428
-0.00143596 -0.0262874
-0.0017011 -0.0263436
-0.00208943 -0.0264462
-0.00248111 -0.0265733
-0.00276397 -0.0266802
-0.00304574 -0.0267999
-0.00332489 -0.0269331
-0.00360022 -0.0270785
-0.00398918 -0.0273097
-0.00436547 -0.0275641
-0.00472511 -0.0278406
-0.00387562 -0.0364874
-0.00723654 -0.0337052
-0.00710072 -0.0342788
-0.00691069 -0.0347744
-0.00667804 -0.0351935
-0.00641938 -0.0355421
0.00472344 -0.0228505
-0.00324955 -0.0363958
-0.00250243 -0.0361592
-0.00162576 -0.0357534
0 0
-0.00183376 -0.00166611
-0.00259676 -0.00277181
-0.00271116 -0.00366712
-0.00227451 -0.00475586
-0.00166771 -0.0058072
-2.27178e-05 -0.0248537
0 0
0 0
0 0
0 0
0.00143624 -0.0240738
0.00288853 -0.0212277
0.00376054 -0.0152894
-0.00467765 -0.0229057
0.00184069 -0.00166345
0.00260768 -0.00278122
0.00272378 -0.00368192
0.00228842 -0.0047754
0.00168157 -0.00582737
0.0038855 -0.0365163
0.00325926 -0.0364241
0.0025167 -0.0361866
0.00163721 -0.0357861
0.00729427 -0.0331055
0.00438032 -0.0365333
0.00480597 -0.0364829
0.00518436 -0.0363944
0.00552304 -0.0362576
0.00584015 -0.0360857
0.000446455 -0.0262461
0.00727225 -0.0324251
0.00715389 -0.0316984
0.00692799 -0.0309412
0.00659021 -0.0301747
0.00628829 -0.0296515
0.00593301 -0.0291417
0.00552478 -0.0286546
0.00506946 -0.0281962
0.00472845 -0.0279012
0.00436987 -0.0276258
0.00399471 -0.0273721
0.00360691 -0.0271416
0.00305486 -0.0268651
0.00249231 -0.0266371
0.00210219 -0.0265115
0.00171638 -0.0264102
0.00145244 -0.026354
0.000365888 -0.0262489
0.000285776 -0.0262541
0.000201349 -0.0262659
-0.000500717 -0.0253603
0.00218654 -0.0252449
0.00173136 -0.0243218
0.00290607 -0.0196837
-0.00294192 -0.0208569
-0.000460747 -0.0273562
-0.000897507 -0.0249469
-0.00208737 -0.0308961
-0.000333136 -0.0265895
-0.00601504 -0.0319496
-0.00194584 -0.00354411
0.00191162 -0.00361079
-0.00315339 -0.0296179
-0.00112318 -0.0270179
-0.000337856 -0.0280359
-0.000471476 -0.0279956
0.000182895 -0.0279105
-0.000626326 -0.0279608
0.000508673 -0.0280926
0.000294057 -0.027206
-0.000108434 -0.0275976
7.68853e-05 -0.027703
-0.000400417 -0.027209
-0.000913792 -0.0281018
-0.0013014 -0.0283878
-0.0008786 -0.0284747
0.000443096 -0.0258754
-0.00034859 -0.0259022
-0.000584685 -0.0258979
0.000528999 -0.0283405
0.000823089 -0.0282799
-0.000989588 -0.0266213
0.000946024 -0.0265799
-8.71811e-05 -0.0279205
0.000310144 -0.0274552
0.000786582 -0.0268574
-0.000904726 -0.0268123
7.53869e-05 -0.0278881
0.000382152 -0.0259359
-9.98197e-05 -0.0259245
-0.000396523 -0.0259678
-0.000538236 -0.0277065
0.000774598 -0.0280405
0.000842635 -0.026019
0.000821588 -0.0264233
0.000137836 -0.0272029
-0.000259253 -0.0273803
0.000303403 -0.0275466
-9.19112e-05 -0.0273734
-0.000864901 -0.0264841
-0.000853031 -0.0260551
-0.0012096 -0.0280861
-0.00141654 -0.0288676
0.00105349 -0.0256502
0.000419228 -0.0257362
-0.00019974 -0.0258602
-0.000941436 -0.0258539
-0.00183624 -0.0293886
-0.00162665 -0.029508
0.00136137 -0.0291662
0.00127074 -0.0287274
0.00157923 -0.0285944
0.00153515 -0.028344
-0.00128946 -0.0256272
-0.00130333 -0.0261946
0.00123889 -0.0261701
0.00181046 -0.0253659
-0.000839815 -0.0288381
0.000141472 -0.0277633
0.00108084 -0.0266284
-0.000128897 -0.0277555
0.00123403 -0.0292685
0.00045754 -0.0259737
0.000289104 -0.0259307
2.30369e-05 -0.0259452
0.000136887 -0.0259323
-8.44746e-05 -0.0259802
-0.000218524 -0.0259973
-0.000139156 -0.0259961
-0.000379016 -0.026014
-0.000532485 -0.0274878
-0.000969135 -0.0277147
0.00125071 -0.027948
0.00067397 -0.0276861
0.000507579 -0.0260119
0.000597375 -0.0260489
0.00075701 -0.0261604
0.000716601 -0.0263212
0.000428162 -0.0267189
0.000129149 -0.0270406
-0.000155111 -0.0271116
-0.000451456 -0.0267913
-0.000748782 -0.0263839
-0.000760665 -0.0262242
-0.000558673 -0.026085
-0.000446663 -0.0260465
-0.00136245 -0.0279569
-0.00215749 -0.0291622
0.00152941 -0.0250353
-0.000108776 -0.0256995
-0.000851715 -0.0255739
-0.00261281 -0.030407
0.00223842 -0.0302185
0.00200161 -0.0290168
0.00162894 -0.0280684
-0.00201069 -0.0252656
0.00237912 -0.0248602
-0.00139559 -0.0296703
0.00144331 -0.0262249
-0.00260805 -0.024523
-0.00114757 -0.026598
0.000383398 -0.0284083
0.000334241 -0.0260109
0.000236328 -0.0259779
8.57506e-05 -0.025985
-4.029e-05 -0.0260098
-0.000136811 -0.0260266
-0.000247458 -0.0260546
-0.000673804 -0.0273789
0.000756968 -0.0274632
0.000433188 -0.0260976
0.0004587 -0.0263279
8.67806e-05 -0.0268356
-0.00011021 -0.0268946
-0.000443989 -0.026388
-0.00037216 -0.0261406
-0.00131112 -0.0273397
-0.00160445 -0.0276992
-0.00183902 -0.0281096
-0.00251259 -0.0287214
-0.00399891 -0.0306958
-0.00377368 -0.0312779
0.00273909 -0.022285
0.000543823 -0.0251137
-0.00223803 -0.0236044
-0.00344662 -0.0316232
0.00327796 -0.031562
0.00323245 -0.0307656
0.00300722 -0.0298589
0.00259291 -0.0290401
0.00192151 -0.028015
0.00180271 -0.0275515
-0.00274288 -0.0236864
0.00309828 -0.0230807
-0.00293499 -0.0315947
-0.000747564 -0.0292134
0.00285653 -0.0240129
0.00198101 -0.0308237
0.00326702 -0.0322727
-0.00192184 -0.0256206
0.000492063 -0.0286315
0.00024332 -0.0260561
0.000284817 -0.0260927
0.000193157 -0.0260144
0.000233172 -0.0260255
0.000106576 -0.0260101
0.000154512 -0.0260076
4.66823e-06 -0.0260255
5.06442e-05 -0.0260184
-6.33653e-05 -0.0260452
-2.62356e-05 -0.0260374
-0.000146319 -0.0260645
-0.000107001 -0.0260505
-0.000209085 -0.0261302
-0.000168286 -0.0260914
-0.000206169 -0.026923
-0.000486928 -0.0270971
-0.000931751 -0.0272685
0.0012151 -0.0272383
0.000917631 -0.0272658
0.000357117 -0.0270816
0.000129534 -0.026973
0.000343471 -0.02616
0.000338316 -0.0262539
0.000245726 -0.0264621
0.000121455 -0.026615
-0.000176148 -0.0266729
-0.000247919 -0.0265217
-0.000309244 -0.0263057
-0.000276258 -0.0262022
-0.00132016 -0.026809
-0.00180747 -0.0274206
-0.00285493 -0.0282312
-0.00408678 -0.0298088
-0.00493719 -0.0318542
0.00171271 -0.0144263
0.00147401 -0.0237189
9.61311e-05 -0.0250875
-0.00108481 -0.0244617
-0.00201718 -0.0155679
-0.00440211 -0.0331511
0.00452176 -0.0333054
0.00415179 -0.0306834
0.00250547 -0.0283705
0.00168143 -0.0270665
0.000236608 -0.00636219
-0.00253925 -0.018111
-0.00038929 -0.00608981
0.00218707 -0.0171305
-0.00260602 -0.0324365
0.00218202 -0.0250335
0.00376906 -0.0216515
0.00329754 -0.0332309
-0.00364978 -0.0223254
-0.00105639 -0.0266
0.000167733 -0.0260887
0.000139202 -0.0260439
9.66262e-05 -0.0260326
3.8271e-05 -0.0260393
-1.86798e-05 -0.0260528
-6.59014e-05 -0.0260751
-9.8989e-05 -0.0261236
-0.000438128 -0.0268159
-0.000925594 -0.0267942
0.000790891 -0.0268571
0.000261594 -0.0268104
0.00016978 -0.0262192
3.75025e-06 -0.0264966
-0.000168869 -0.0265239
0.000138246 -0.0266219
-4.93903e-05 -0.0265528
-0.000120614 -0.026256
-0.000831317 -0.0265216
0.000835512 -0.0266492
-0.00140879 -0.0264673
-0.00160461 -0.0267153
-0.00198773 -0.026841
-0.00227122 -0.0272398
-0.00290574 -0.0274739
-0.00348118 -0.0280862
-0.00417465 -0.0286712
-0.00497065 -0.0296319
-0.00574978 -0.0306116
0.00131454 -0.0152683
0.000508822 -0.0230241
-0.000477909 -0.0235823
-0.0012603 -0.0164466
-0.00600415 -0.0330966
-0.00576624 -0.0340228
-0.00539411 -0.0347539
-0.00504687 -0.0354906
-0.00399041 -0.0350021
0.00422133 -0.0352273
0.00507281 -0.0354563
0.00549715 -0.0348505
0.00580043 -0.0339711
0.00600597 -0.0328196
0.00556086 -0.0314004
0.00501489 -0.0300162
0.00443204 -0.0288238
0.003451 -0.0281702
0.00293445 -0.0272769
0.00238399 -0.0270168
0.00199413 -0.0268896
0.00140032 -0.0266167
0.00185235 -0.00642482
-5.7525e-06 -0.0116048
-0.00198961 -0.0170117
-0.00187807 -0.00629602
0.00163262 -0.0160084
-6.60062e-05 -0.0112745
-0.0027748 -0.0343619
-0.00127535 -0.0337663
0.00213899 -0.0257887
0.00316286 -0.0346066
-0.000746038 -0.0278939
0.00185036 -0.0334715
8.60137e-05 -0.0261365
8.08405e-05 -0.0261747
9.61046e-05 -0.0260978
0.00010232 -0.0260674
0.000100468 -0.0260807
0.000101333 -0.0260508
8.99686e-05 -0.026043
9.64124e-05 -0.0260463
7.32708e-05 -0.0260411
5.23744e-05 -0.0260429
6.31819e-05 -0.0260418
2.98203e-05 -0.0260475
7.00443e-06 -0.0260538
1.83785e-05 -0.0260505
-1.29164e-05 -0.0260623
-3.1016e-05 -0.0260747
-2.24334e-05 -0.0260681
-4.2379e-05 -0.0260919
-4.79898e-05 -0.0261186
-4.61704e-05 -0.0261042
-4.16052e-05 -0.026157
-2.70571e-05 -0.0262191
-3.5603e-05 -0.0261845
-0.000971464 -0.0263877
-0.0011489 -0.0264129
0.00114292 -0.0265597
0.000966992 -0.0265322
-0.000639895 -0.026724
-0.000362401 -0.0264202
0.000536642 -0.0267183
0.000373299 -0.0266919
0.000406356 -0.0265107
3.38861e-05 -0.0262935
-3.63345e-06 -0.0263621
3.31106e-05 -0.0264461
-1.22557e-05 -0.0263512
-0.000680601 -0.026345
0.000709295 -0.0264013
-0.000480006 -0.0263316
-0.000562201 -0.0263352
0.000592175 -0.0263915
0.000511076 -0.0263877
-0.000294824 -0.0262878
-0.000126857 -0.0262927
-0.000213828 -0.0262891
0.000334408 -0.0263901
0.000255464 -0.0263884
0.000175444 -0.0263879
0.000241471 -0.0264964
-0.000183456 -0.0263692
0.000578974 -0.0265202
-0.000543848 -0.0264719
-0.000123797 -0.0264012
0.000134015 -0.0263501
0.000506738 -0.0268938
-0.000744215 -0.0269702
0.00109874 -0.0267877
-0.0011253 -0.0265732
-0.000112324 -0.0261725
-8.33143e-05 -0.0260946
-4.3629e-05 -0.0260623
8.95953e-06 -0.0260457
6.8555e-05 -0.0260346
0.000121099 -0.0260351
0.000151035 -0.026063
0.000190636 -0.0261374
0.00209264 -0.031846
-0.000921876 -0.0304083
-0.000190359 -0.0105291
-5.81984e-05 -0.0111306
0.00228758 -0.027362
0.0035764 -0.0293114
0.00464896 -0.0322075
0.00438927 -0.0341812
-0.00386334 -0.033479
-0.0047366 -0.0326109
-0.00224177 -0.0213248
0.0023831 -0.0199336
-0.00498334 -0.030953
-0.00335615 -0.0288961
-0.00210391 -0.0277991
-0.00152072 -0.0270471
4.45271e-05 -0.0267234
-0.000156913 -0.0266656
-0.00327996 -0.0221565
0.00339108 -0.0213928
0.000352328 -0.0249904
-0.000464703 -0.0262212
-0.000378931 -0.0266081
0.000363294 -0.0265443
0.000508055 -0.0261664
0.000224711 -0.0272238
0.00135365 -0.0276653
-0.00112823 -0.0275728
-0.000260109 -0.0271702
-0.000287805 -0.02609
-0.000201309 -0.0260319
-7.87833e-05 -0.0260238
8.46991e-06 -0.0259959
0.000169133 -0.0259754
0.000296918 -0.0259877
0.000362244 -0.0260507
-0.000684101 -0.0271515
0.00182031 -0.0301681
-0.000420834 -0.0285246
-0.00213206 -0.0302919
0.00245487 -0.0241975
-0.0016739 -0.0249851
0.00191489 -0.0284805
0.00218717 -0.0296763
-0.000504961 -0.0258239
0.000574009 -0.0254473
-0.00292314 -0.0301447
-0.00160937 -0.0283476
-0.00147465 -0.0261699
0.00141243 -0.0261761
-0.000600859 -0.0259869
-0.00107834 -0.0261422
-0.000514928 -0.0269371
0.000487553 -0.0268618
0.00102156 -0.0260924
0.000650518 -0.0259579
0.00116895 -0.0281875
-0.000824859 -0.0278234
-0.00021159 -0.0259628
5.38757e-05 -0.0258837
0.000433145 -0.028326
0.000580615 -0.0272272
0.000630845 -0.028332
-0.000757983 -0.0285312
0.000401554 -0.0278546
-0.000265027 -0.0275712
-0.000241304 -0.0274935
4.29202e-05 -0.027583
-0.00101517 -0.0283742
-0.00221392 -0.0259959
0.000620371 -0.035098
-0.0010602 -0.030519
0.000422173 -0.0320043
5.59936e-05 -0.0346374
0.000800005 -0.0300494
-0.000609106 -0.0350724
0.00322167 -0.0246092
0.00155714 -0.0287068
-3.815e-05 -0.0346065
9.90409e-05 -0.0312836
0.000725558 -0.0280072
0.000743913 -0.0135545
0.00184306 -0.0157657
0.000974705 -0.0130353
0.00302441 -0.0187345
-0.000913371 -0.00709693
-1.83855e-05 -0.00866942
0.000274702 -0.0111676
-0.000201581 -0.0110298
0.000579998 -0.0131976
-0.00107133 -0.00856469
-0.000582987 -0.00912499
-0.00152854 -0.00686357
0.000961661 -0.0105823
0.001716 -0.0123367
-0.0021225 -0.00550595
-0.00114696 -0.00826787
-0.000956895 -0.0142422
-0.000998788 -0.0132698
-0.00201306 -0.0164431
-0.000294134 -0.0113765
0.000924237 -0.00711786
2.3216e-05 -0.00869687
-0.00327222 -0.0195371
-0.000870722 -0.0139943
3.82939e-05 -0.0114944
0.00102589 -0.00878523
0.00152872 -0.00695435
0.00056772 -0.00930096
0.00212224 -0.00557669
-0.000959082 -0.0106184
-0.00170983 -0.0123833
0.00102747 -0.00861431
-0.000790884 -0.0210281
0.000603485 -0.0226208
0.00067812 -0.0192833
0.000300205 -0.0247225
0 0
0 0
-0.000659047 -0.00986083
-0.00188197 -0.0191835
-0.00140131 -0.0224879
0.000854959 -0.020191
-0.000654716 -0.0188002
-0.000672807 -0.0222432
0.000698261 -0.00895787
0 0
-0.00371325 -0.015233
-0.000380581 -0.0245795
0.00155661 -0.0215083
0.00193826 -0.0178025
-0.00262271 -0.0244499
-0.00266428 -0.0245416
-0.000924921 -0.0268692
-0.00406191 -0.0224218
0.000625827 -0.0290316
-0.00284513 -0.0241177
-0.00339151 -0.0226504
0.00342538 -0.0232095
0.00218615 -0.0252
0.0036203 -0.0233046
0.000606989 -0.0273753
0.00411428 -0.0219215
0.00358567 -0.0217051
0.00323228 -0.0233345
0.0031206 -0.0198333
0.00317555 -0.0197237
0.00190984 -0.0167038
0.000988744 -0.0138862
0.00294747 -0.0194492
-0.00320066 -0.0203231
-0.00227811 -0.0176587
-0.00340121 -0.0204402
-0.00136012 -0.0147834
-0.0031173 -0.0203687
-0.000989077 -0.0112158
-0.00194909 -0.015382
-0.0010873 -0.0104278
-0.00244231 -0.0186225
0.000361831 -0.00354698
0.000172947 -0.00885882
-0.00115515 -0.0132441
-0.000395871 -0.0249595
-0.000324066 -0.0248311
-0.000965061 -0.0240766
-2.70472e-05 -0.0250774
-0.00172935 -0.0232861
-0.000411521 -0.0249843
0.000223467 -0.025017
0.000707541 -0.0246266
0.00115199 -0.0233711
0.000434332 -0.02451
0.00201339 -0.0221945
0.000977785 -0.0245859
0.00068177 -0.0103687
0.000903091 -0.0095424
0.00179475 -0.014186
-0.000428849 -0.00344039
0.00233693 -0.0172279
0.000818533 -0.0123959
-0.00037798 -0.00842795
-0.00273632 -0.0243178
-0.00193624 -0.0255005
-0.000847659 -0.0269372
-0.00131154 -0.0264161
0.00331456 -0.0227846
0.00209498 -0.0251734
0.000754322 -0.026965
0.000850986 -0.0268499
-0.00304682 -0.0234581
-0.00234182 -0.0250192
-0.00170176 -0.0259406
-0.00207394 -0.0254263
-0.00234084 -0.02494
-0.00242994 -0.0245758
-0.00276662 -0.0240165
-0.00192159 -0.0250727
-0.00226747 -0.0244476
-0.00307398 -0.0229095
-0.00184835 -0.025634
0.00248318 -0.0244786
0.00216832 -0.0248409
0.00210851 -0.0251493
0.00172355 -0.0256831
0.00143183 -0.0257716
0.00194398 -0.0255299
-0.00150888 -0.025331
-0.00166467 -0.025483
-0.00155537 -0.0257751
-0.00125253 -0.0258398
-0.00126292 -0.0253427
-0.00109571 -0.0255932
-0.000885228 -0.0257542
-0.000676535 -0.0257155
0.000500946 -0.0256067
0.000215158 -0.0255995
0.000171984 -0.0257211
-1.29539e-05 -0.0258009
-0.000330298 -0.0257661
0.000216128 -0.0258182
0.00143982 -0.0255388
0.00173611 -0.0251619
0.00130557 -0.0253784
0.00201894 -0.0246865
0.00105078 -0.0252815
0.000863091 -0.0255412
0.00111178 -0.0258185
0.000737184 -0.0256948
0.000448115 -0.0258087
0.000561176 -0.0259041
0.0002537 -0.0258773
0.000728587 -0.0257864
0.000869409 -0.0258215
0.00120813 -0.00183789
0.00119254 -0.00470228
0.000923277 -0.00244695
0.00127047 -0.00691336
0 0
0 0
0.00148357 -0.00148798
0.00253328 -0.00410254
0.0020352 -0.00511517
0.00228523 -0.0029817
-0.00247432 -0.0145095
-0.0030029 -0.0157674
-0.00229568 -0.00295487
-0.00207072 -0.00501463
-0.00253395 -0.00405758
-0.00139379 -0.00661614
0.00248441 -0.0144471
0.00300373 -0.0156846
-0.0014932 -0.0014815
-0.000958276 -0.00240549
-0.00127875 -0.00457266
-0.00121739 -0.00181993
-0.00291914 -0.0211954
-0.00147537 -0.0240494
-0.001611 -0.0244503
-0.00104028 -0.0247141
-0.00169556 -0.0240025
-0.000257669 -0.0250567
-0.00232162 -0.0225889
-0.00201065 -0.02436
-0.00133654 -0.0249142
-0.00272003 -0.0223654
-0.00296274 -0.0224275
-0.00255947 -0.0235195
-0.00314066 -0.0213703
-0.00267518 -0.0208358
-0.00220277 -0.0167409
-0.00288368 -0.019502
-0.00263692 -0.018555
0.00240689 -0.0173093
0.00266045 -0.0184516
0.00186368 -0.0156962
0.00313122 -0.0203978
0.00271234 -0.019471
0.00299998 -0.0224744
0.003167 -0.0215221
0.00293945 -0.0210351
0.00329778 -0.0222556
0.00261177 -0.0211642
0.00267003 -0.0233015
0.00283256 -0.0236565
0.0016708 -0.0246614
0.00116093 -0.0248275
0.00108589 -0.0250544
0.00105611 -0.0247121
0.000461223 -0.025017
0.000572761 -0.0252536
0.00216501 -0.024167
0.00218711 -0.0229118
0.00167255 -0.0239928
0.00230706 -0.023487
0.00278582 -0.0241807
0.0025214 -0.0246813
0.00307113 -0.0234494
0.00154967 -0.0260138
0.00278427 -0.0240839
0.00233694 -0.0250085
0.00178953 -0.0257865
-0.000287855 -0.0255496
-0.000697256 -0.0254707
-0.000469978 -0.025658
-0.00110692 -0.0252361
6.25048e-05 -0.0254392
-0.000181613 -0.025151
-0.000709128 -0.0251475
4.8928e-06 -0.0252699
0.000302051 -0.0327336
-0.000628422 -0.0326557
-0.000468895 -0.0338346
-0.000507361 -0.0306903
-0.00119313 -0.0320873
-0.000969965 -0.0344259
0.000558786 -0.0340267
0.00121328 -0.0333025
0.000865184 -0.0317566
0.00106691 -0.0282173
0.000340447 -0.0296414
0.000771666 -0.0301307
-0.000167444 -0.0293193
0.00168209 -0.0307113
0.00177911 -0.0271696
0.0013823 -0.0269825
0.00379157 -0.0203032
0.00353719 -0.0171753
0.00314974 -0.0182345
0.0022207 -0.0173347
0.00266614 -0.0166517
0.00398841 -0.0192473
-0.00353271 -0.0172692
-0.00395829 -0.0208487
-0.00325078 -0.0187455
-0.00276502 -0.0171323
-0.00251473 -0.0182357
-0.00392758 -0.0193373
-0.00342799 -0.0235229
-0.00347456 -0.0238264
-0.00249256 -0.0249933
-0.00438348 -0.0225004
-0.00330854 -0.024631
-0.00143321 -0.0270163
-0.00170847 -0.0260678
-0.00342399 -0.0232745
-0.00383264 -0.0223341
-1.38647e-05 -0.0284211
0.000721842 -0.0294364
-9.54541e-05 -0.0280232
0.00148249 -0.0310129
0.00140871 -0.0304392
-0.000222112 -0.0277374
-0.00100805 -0.0266657
-0.000835563 -0.0272177
8.27708e-05 -0.0290573
-0.0027774 -0.0242232
-0.0031514 -0.023429
-0.00316484 -0.0235049
-0.00318988 -0.0231321
-0.00334844 -0.0223505
-0.003508 -0.0224733
-0.00324337 -0.0234358
-0.00184251 -0.0255454
-0.00225887 -0.0250058
0.00133583 -0.0263558
0.000653761 -0.0275816
0.00143573 -0.0265164
-0.000214002 -0.0288923
0.00217394 -0.0254024
0.00219647 -0.0250633
0.00141925 -0.0261131
0.0035072 -0.023726
0.00412606 -0.0228883
0.00399909 -0.0226305
0.00395766 -0.0237765
0.00445942 -0.0221792
0.00392786 -0.0217586
0.00388839 -0.0223951
0.00298191 -0.0243608
0.00265637 -0.0252422
0.00363502 -0.0224164
0.00350535 -0.0225525
0.00332208 -0.0232575
0.00347929 -0.0215164
0.00345408 -0.0223401
0.00283008 -0.0240923
0.00283531 -0.0241318
0.00373431 -0.022454
0.00366926 -0.0216648
0.00368429 -0.0207916
0.00376058 -0.0206499
0.00311561 -0.0194181
0.00236577 -0.0178528
0.00358942 -0.020795
0.00347926 -0.0207267
0.00344387 -0.0208224
0.00333325 -0.0206824
0.00260027 -0.0184363
-0.00337501 -0.0201889
-0.00398653 -0.0212907
-0.00381388 -0.0213768
-0.0036719 -0.0214761
-0.00270329 -0.0187863
-0.00351258 -0.0213027
-0.00345394 -0.0215615
-0.00284006 -0.019189
-0.0033275 -0.0213049
-0.00154207 -0.0259888
-0.000955056 -0.0267675
-0.00139063 -0.0262399
-0.00144072 -0.0262212
-0.000771049 -0.0270551
-0.00194004 -0.0255518
0.00069104 -0.0271017
-1.336e-05 -0.0280677
-0.000118484 -0.0283589
0.000135084 -0.0277924
-0.000575487 -0.0288112
-0.000852029 -0.029698
0.00143294 -0.0260411
0.00146425 -0.0260354
0.000811331 -0.0268832
0.00146582 -0.0260027
0.00021349 -0.0276742
0.00214258 -0.0250861
0.00255972 -0.0245246
0.00180921 -0.02562
0.000484277 -0.0273347
0.0012301 -0.0263888
0.00192879 -0.0255678
0.00226659 -0.0250256
-0.000120446 -0.0280988
0.000860041 -0.0268849