<?xml version="1.0"?>
<VTKFile type="UnstructuredGrid">
  <UnstructuredGrid>
  <Piece NumberOfPoints="3487"  NumberOfCells="1698">
    <Points>
      <DataArray type="Float64" NumberOfComponents="3" format="ascii">
39.9723 48.4753 0
60.0285 48.474 0
40.6338 48.6063 0
41.2966 48.7285 0
41.9605 48.8416 0
42.6257 48.9457 0
43.2921 49.0407 0
43.9597 49.1267 0
44.6283 49.2037 0
45.2978 49.2716 0
45.9682 49.3304 0
46.6392 49.3802 0
47.3108 49.421 0
47.9829 49.4527 0
48.6553 49.4753 0
49.3279 49.4888 0
50.0007 49.4933 0
50.6735 49.4887 0
51.3461 49.4751 0
52.0185 49.4524 0
52.6905 49.4206 0
53.3621 49.3798 0
54.0331 49.3299 0
54.7034 49.2709 0
55.3729 49.2029 0
56.0415 49.1259 0
56.709 49.0398 0
57.3754 48.9447 0
58.0405 48.8406 0
58.7044 48.7274 0
59.367 48.6051 0
39.9906 49.4919 0
39.9907 49.2378 0
39.9876 48.9837 0
39.9814 48.7296 0
19.8521 69.3544 0
39.9872 49.7535 0
39.9804 50.0151 0
39.9645 50.3935 0
39.9414 50.7714 0
39.8952 51.3174 0
39.8341 51.862 0
39.7192 52.6466 0
39.5731 53.426 0
39.3072 54.542 0
38.9775 55.6412 0
38.6998 56.4237 0
38.3898 57.194 0
38.0481 57.9508 0
37.6751 58.6928 0
37.0816 59.7375 0
36.4264 60.7448 0
35.7119 61.7108 0
-0.0758295 49.2819 0
17.2428 69.1701 0
14.6797 68.6479 0
12.2064 67.7968 0
9.8648 66.6309 0
7.69501 65.1701 0
11.5947 31.45 0
0.136935 46.464 0
0.747568 43.7053 0
1.74434 41.0615 0
0 0 0
0.103712 3.69711 0
0.506183 7.38459 0
1.19692 11.0347 0
2.17009 14.619 0
3.0828 17.256 0
49.9996 -0.486489 0
5.1116 0 0
10.2232 0 0
15.3348 0 0
100 0 0
57.4168 -0.471396 0
64.834 -0.416253 0
72.2407 -0.300189 0
88.4064 31.4488 0
99.8964 3.69713 0
99.4941 7.38434 0
98.8033 11.0344 0
97.8302 14.6186 0
96.9175 17.2556 0
100.076 49.2814 0
99.8633 46.4635 0
99.2527 43.7048 0
98.2559 41.0609 0
80.1478 69.3535 0
99.9153 51.8917 0
99.414 54.4588 0
98.5812 56.938 0
97.4313 59.2875 0
95.9847 61.4665 0
60.0099 49.4906 0
77.6366 69.2091 0
75.1632 68.7516 0
72.7665 67.9882 0
70.4841 66.9308 0
68.9929 66.0369 0
67.5847 65.0171 0
66.2702 63.879 0
65.0595 62.6311 0
64.2882 61.7097 0
63.5737 60.7436 0
62.9185 59.7363 0
62.3251 58.6915 0
61.6104 57.1929 0
61.0228 55.64 0
60.6931 54.5409 0
60.4272 53.4247 0
60.2812 52.6453 0
60.0098 49.2365 0
60.013 48.9824 0
60.0193 48.7282 0
52.8125 29.7544 0
26.5583 36.5785 0
40.3557 23.8925 0
24.9754 22.2203 0
71.8949 22.2325 0
72.6993 43.6107 0
54.7913 23.7087 0
15.2741 47.0259 0
38.3553 49.099 0
23.5164 64.8431 0
7.67098 7.69618 0
91.9702 7.6737 0
29.1196 56.5191 0
37.1672 51.5654 0
28.0834 46.8481 0
29.7205 47.81 0
71.5182 46.3343 0
30.9766 48.709 0
70.5224 47.8105 0
31.6394 45.3044 0
30.885 46.7554 0
70.0657 46.3252 0
68.9784 44.6546 0
31.2768 49.8026 0
30.8839 51.0224 0
28.1746 48.8001 0
45.3135 40.9534 0
53.8397 40.5742 0
56.0207 40.1231 0
73.1354 47.0843 0
70.1269 49.0491 0
68.3198 42.0903 0
32.3232 42.421 0
26.135 45.3315 0
27.6806 44.3411 0
30.3143 42.976 0
70.4016 42.2871 0
72.6783 45.6003 0
44.8534 42.7453 0
51.4295 41.6519 0
55.4052 42.2378 0
32.4415 48.748 0
68.567 49.288 0
39.487 41.7357 0
35.4495 43.0477 0
32.8956 46.2028 0
33.5725 47.949 0
67.1091 47.892 0
67.9822 46.1311 0
65.0625 42.7102 0
60.4091 41.3729 0
32.3489 51.0624 0
28.195 50.6546 0
41.7908 36.9617 0
46.8283 37.3654 0
52.0467 39.5371 0
58.667 38.9068 0
26.5781 51.5454 0
24.276 49.9778 0
74.2475 49.5886 0
71.1846 50.2957 0
69.1663 51.8777 0
67.9405 52.0141 0
59.7471 36.0289 0
66.487 40.3407 0
34.1228 40.7174 0
36.0474 35.4632 0
23.1712 46.8153 0
21.648 42.9306 0
28.3667 41.4616 0
74.3162 44.3613 0
76.6549 48.1939 0
43.0594 43.333 0
46.2719 42.6191 0
49.9683 42.6668 0
48.4343 42.4498 0
51.7622 43.704 0
54.0859 43.8196 0
52.9046 44.1152 0
56.2684 43.3682 0
33.873 49.0433 0
33.7675 50.5545 0
66.556 51.3673 0
66.6063 49.3789 0
41.8377 43.5701 0
40.7096 43.3074 0
38.4693 42.9135 0
37.1504 43.517 0
35.3509 45.2208 0
34.3268 46.497 0
66.0222 46.2202 0
65.0136 44.9501 0
63.1812 43.2 0
61.6955 42.7524 0
58.8723 43.1673 0
57.5341 43.4839 0
33.3746 51.7752 0
29.1343 53.3722 0
40.8528 30.6906 0
50.884 35.6796 0
55.6574 33.963 0
23.522 53.0807 0
76.9511 51.5513 0
70.2683 52.9804 0
66.4321 52.6074 0
65.448 34.8488 0
30.9823 34.2711 0
19.4264 46.9271 0
26.1466 39.7029 0
71.9699 33.7955 0
72.0387 41.0498 0
77.4906 44.9571 0
43.1708 44.7748 0
45.812 44.4112 0
48.7657 44.502 0
51.443 45.1302 0
53.7674 45.2458 0
56.2152 45.066 0
34.8989 49.7557 0
65.0976 49.9711 0
40.8202 44.749 0
38.3727 45.0891 0
36.029 46.9683 0
64.1394 46.7123 0
61.6446 44.9951 0
58.8202 44.8649 0
36.0475 52.0308 0
34.8923 52.7897 0
33.4738 53.2969 0
31.8638 55.0821 0
26.0343 58.528 0
22.9411 56.9252 0
32.4325 22.4243 0
47.0437 26.3754 0
63.1095 22.753 0
19.9388 54.63 0
80.2367 53.896 0
75.8487 55.4136 0
71.983 55.7766 0
69.1302 55.1068 0
65.8038 53.6168 0
64.1262 53.4665 0
68.1179 28.7078 0
26.8173 29.8035 0
17.1961 51.3613 0
14.5901 42.0871 0
22.4405 33.7706 0
84.9235 46.4883 0
84.7681 51.6251 0
75.1443 37.6209 0
81.2202 43.5902 0
42.4591 46.1049 0
41.419 45.913 0
44.9676 45.9506 0
43.6817 45.8676 0
47.7374 45.8919 0
46.3872 45.8245 0
50.6201 46.2049 0
49.2726 46.1089 0
53.0501 46.5999 0
51.7629 46.6162 0
55.5117 46.2121 0
54.2322 46.3042 0
58.0594 46.1653 0
56.7783 46.3279 0
36.3694 48.2899 0
36.0185 49.2896 0
35.9129 50.8018 0
63.4046 51.7361 0
63.8437 50.7229 0
63.8943 48.7329 0
63.8399 47.8313 0
40.2903 45.6497 0
39.3745 45.8283 0
38.0545 46.4309 0
37.3942 47.0134 0
62.8311 46.5608 0
62.0144 46.2379 0
60.5277 45.7913 0
59.3985 45.8482 0
38.0387 52.2385 0
36.1464 53.5539 0
34.0289 56.4057 0
29.5343 59.4557 0
22.7966 60.978 0
21.7621 15.2345 0
39.9844 15.9252 0
48.9023 11.1916 0
56.9287 16.6469 0
76.6174 15.458 0
15.5678 56.6587 0
84.5928 57.0921 0
73.4764 59.1098 0
66.5601 55.2728 0
62.4834 53.2432 0
82.9425 7.75936 0
79.7069 22.385 0
16.3038 7.84431 0
18.3788 22.1127 0
10.6812 46.3676 0
16.6112 35.6954 0
15.5761 30.1391 0
89.4558 49.2342 0
83.2585 30.9749 0
81.5608 38.972 0
41.9296 47.0061 0
44.2567 47.281 0
46.8937 47.4316 0
49.592 47.595 0
52.2272 47.6747 0
54.7944 47.5663 0
57.356 47.3117 0
37.3839 49.3359 0
37.9044 51.0084 0
62.2007 50.498 0
62.5854 48.5824 0
39.9729 46.9929 0
38.396 47.7535 0
38.5086 48.5232 0
61.7678 48.2205 0
61.7141 47.3578 0
59.7674 47.0926 0
38.8755 50.7725 0
61.3617 50.7053 0
39.1745 52.5537 0
38.4374 53.1102 0
38.1397 54.2176 0
36.9847 54.9758 0
36.4715 56.7461 0
34.8152 58.2606 0
33.298 60.1101 0
30.6704 62.2075 0
27.8993 64.3458 0
27.1867 7.63885 0
38.6626 8.06954 0
59.8706 8.28718 0
71.7502 7.70492 0
19.1422 64.2723 0
14.8493 62.5256 0
10.6556 59.7272 0
6.21377 56.6729 0
5.93874 50.7463 0
94.2984 51.8406 0
93.396 56.8922 0
89.4183 60.2455 0
84.6708 62.7701 0
79.5668 64.4579 0
74.662 63.5103 0
70.3463 62.2476 0
66.9012 60.81 0
65.2727 58.1467 0
62.765 56.8322 0
62.114 55.3066 0
61.8161 54.1992 0
61.0944 52.4681 0
93.5149 14.4687 0
89.7924 20.5777 0
86.0802 24.8579 0
6.23128 14.4633 0
13.0344 24.3351 0
9.79157 20.5712 0
5.71962 45.1866 0
5.63692 40.2508 0
12.3344 34.4145 0
94.2754 46.7296 0
88.1076 36.7353 0
93.3849 42.0157 0
41.0923 47.7713 0
40.4311 47.6446 0
42.1335 47.9632 0
43.4647 48.1622 0
42.7978 48.0717 0
44.7514 48.2454 0
46.091 48.3721 0
45.4203 48.3178 0
47.4417 48.4396 0
48.786 48.4938 0
48.1135 48.4758 0
50.1339 48.5899 0
51.4791 48.5716 0
50.8067 48.5898 0
52.7666 48.5553 0
54.109 48.4646 0
53.4384 48.519 0
55.3891 48.3724 0
56.7249 48.2094 0
56.0581 48.2999 0
58.0069 48.0468 0
59.3326 47.8116 0
58.6713 47.9382 0
39.3586 51.2265 0
39.305 51.7717 0
60.964 51.6862 0
60.9104 51.141 0
38.0039 50.0995 0
39.1287 49.2871 0
61.8008 49.6912 0
61.8224 49.1229 0
60.9831 49.3296 0
39.5144 47.8229 0
39.1698 47.9408 0
60.9504 47.898 0
60.4628 47.7543 0
39.4583 50.3171 0
60.5103 50.334 0
39.4829 49.6774 0
39.4778 49.939 0
60.4909 49.9559 0
60.4858 49.6943 0
39.6366 49.1011 0
39.6272 48.5932 0
39.6351 48.8471 0
60.5071 49.1254 0
60.5086 48.8715 0
60.5166 48.6176 0
61.0046 48.7611 0
39.2822 48.711 0
60.9617 49.8983 0
38.9751 49.8632 0
60.8973 47.0349 0
39.0565 47.1708 0
62.6402 49.4845 0
37.0325 50.336 0
61.7618 51.5121 0
38.7758 51.6817 0
58.6376 47.1489 0
56.0744 47.4741 0
53.5146 47.6584 0
50.9398 47.691 0
48.2443 47.499 0
45.543 47.3641 0
42.9702 47.1978 0
40.8891 46.814 0
89.1831 44.4049 0
10.9125 40.5501 0
13.2798 16.0528 0
85.8791 16.2537 0
63.2054 54.9739 0
68.9725 58.1181 0
79.0143 59.4784 0
89.3562 54.5059 0
11.7131 52.4624 0
19.1625 59.3001 0
66.6841 15.5023 0
30.789 15.2388 0
26.2813 61.7627 0
32.1104 57.6381 0
34.9912 54.3125 0
37.3015 52.7952 0
62.5312 47.6803 0
37.7348 48.3357 0
75.899 28.419 0
20.5563 28.3364 0
47.9192 18.9952 0
60.1588 44.5475 0
63.1314 45.4415 0
37.0527 45.6915 0
39.6918 44.4856 0
65.1488 47.9822 0
65.0477 51.9607 0
34.7931 51.2675 0
35.0038 48.2442 0
57.4815 45.1817 0
54.9491 44.9502 0
52.5856 45.5415 0
50.3005 44.719 0
47.2311 44.2849 0
44.3928 44.5373 0
41.9486 45.0119 0
74.3367 42.3731 0
80.2909 48.5231 0
17.9906 42.9985 0
21.2808 50.4329 0
34.4725 29.4208 0
59.9647 29.9634 0
67.8167 53.2539 0
73.4332 52.6771 0
54.4558 38.4597 0
46.5154 32.6195 0
26.1921 55.0411 0
31.9558 52.2827 0
69.7433 39.7239 0
30.9975 40.0936 0
57.5868 41.7863 0
63.2318 40.9589 0
66.896 44.4593 0
33.649 44.7507 0
37.2472 41.3425 0
41.7266 42.1286 0
68.0646 50.7747 0
32.7417 49.8421 0
53.2232 42.689 0
49.6365 40.6147 0
74.2957 46.3502 0
25.7326 42.8267 0
71.9752 47.8188 0
26.5373 47.8378 0
69.0698 47.802 0
32.1411 47.6542 0
71.0617 44.8496 0
29.6287 45.8574 0
29.8116 49.7632 0
88.1248 34.0982 0
96.8924 38.5872 0
91.2847 35.4055 0
92.2326 38.2508 0
96.0811 37.43 0
88.506 40.4464 0
3.10789 38.5876 0
11.9138 32.8867 0
10.0255 34.7069 0
3.91929 37.4305 0
8.32124 37.178 0
11.7026 36.7283 0
11.4122 22.455 0
11.0118 26.2869 0
9.39003 24.412 0
11.9044 28.7373 0
4.14595 19.8334 0
5.35615 22.3424 0
8.24661 22.6679 0
11.5342 18.3094 0
13.1543 20.1954 0
8.00953 17.5216 0
6.96697 20.2036 0
5.18599 17.1451 0
6.70863 24.7739 0
7.81566 26.5441 0
4.19978 14.5416 0
9.75335 15.261 0
87.9371 22.7192 0
90.4022 24.4138 0
88.5457 26.5448 0
91.5457 22.6703 0
95.8543 19.833 0
94.644 22.3419 0
87.6744 29.0428 0
[...]
    <PointData>
      <DataArray type="Float64" NumberOfComponents="2" Name="Displacement" format="ascii">
-0.00186783 -0.509255
0.00266068 -0.510512
-0.000580305 -0.508756
0.00031506 -0.508154
0.000786876 -0.50774
0.00111439 -0.507387
0.00131759 -0.507127
0.00144968 -0.506949
0.00150576 -0.506795
0.0015143 -0.506689
0.00147649 -0.506627
0.00140547 -0.506602
0.00130083 -0.50658
0.00117372 -0.506581
0.00102641 -0.506603
0.000867421 -0.506644
0.000698099 -0.506681
0.000526652 -0.506731
0.000357359 -0.506796
0.000196147 -0.506878
4.93432e-05 -0.506959
-7.92885e-05 -0.507062
-0.000182928 -0.50719
-0.000256159 -0.50735
-0.000285139 -0.50752
-0.000270782 -0.507742
-0.000198876 -0.50802
-6.21062e-05 -0.508365
0.000222727 -0.508731
0.000628865 -0.509226
0.00138933 -0.50991
-0.00938177 -0.508128
-0.00764587 -0.508214
-0.0059194 -0.508366
-0.00412531 -0.508693
-0.147899 -0.645614
-0.0110573 -0.50812
-0.0127355 -0.50815
-0.0151815 -0.508242
-0.0176486 -0.508396
-0.0212236 -0.508723
-0.0248409 -0.509165
-0.030145 -0.510012
-0.0355129 -0.511101
-0.0433564 -0.513109
-0.0512474 -0.515619
-0.0569355 -0.517738
-0.0625955 -0.520115
-0.068197 -0.522765
-0.0737171 -0.525657
-0.0815097 -0.530262
-0.0890423 -0.535332
-0.0962385 -0.540846
-0.0758295 -0.718066
-0.146645 -0.658783
-0.143897 -0.67057
-0.140009 -0.680847
-0.135205 -0.68963
-0.129804 -0.697025
0.0983268 -0.447878
-0.0628246 -0.716336
-0.0474808 -0.711694
-0.0296368 -0.703676
0 0
-0.035557 -0.0321668
-0.0501182 -0.0531971
-0.0518513 -0.0701194
-0.0427021 -0.0909508
-0.0303324 -0.111281
-0.000420549 -0.486489
0 0
0 0
0 0
0 0
0.0284013 -0.471396
0.0572183 -0.416253
0.0754955 -0.300189
-0.0972519 -0.448988
0.0357019 -0.0321208
0.0503439 -0.0533888
0.0521161 -0.0704164
0.0429968 -0.0913392
0.0306283 -0.111681
0.07606 -0.718623
0.0630537 -0.71688
0.047795 -0.712222
0.0299007 -0.704305
0.147833 -0.646496
0.0864495 -0.718813
0.0954761 -0.717608
0.103552 -0.715571
0.11081 -0.712514
0.117586 -0.708701
0.00991745 -0.509419
0.14736 -0.632699
0.14495 -0.618033
0.140393 -0.602808
0.133604 -0.587439
0.127552 -0.576968
0.120437 -0.566776
0.112269 -0.557048
0.103161 -0.5479
0.0963395 -0.542013
0.089164 -0.536522
0.0816531 -0.531466
0.0738826 -0.526875
0.0628084 -0.521373
0.0514999 -0.516851
0.0436394 -0.514369
0.0358472 -0.512386
0.0305002 -0.511299
0.00823354 -0.509528
0.0065554 -0.509697
0.004772 -0.510026
-0.00991036 -0.494718
0.0440529 -0.492714
0.0343306 -0.475549
0.0583611 -0.38611
-0.058788 -0.40894
-0.00896833 -0.533306
-0.0177324 -0.487534
-0.0412 -0.605004
-0.00748643 -0.516537
-0.121882 -0.623162
-0.037699 -0.0685415
0.0370584 -0.0698683
-0.0643227 -0.57671
-0.0236358 -0.52486
-0.00723832 -0.546318
-0.0100441 -0.545227
0.0041455 -0.543813
-0.0132501 -0.544315
0.0108063 -0.547147
0.00538853 -0.52965
-0.00274193 -0.537324
0.00207756 -0.539534
-0.00754855 -0.529822
-0.0190975 -0.546978
-0.0269388 -0.552577
-0.0181998 -0.554798
0.00862221 -0.503465
-0.00676472 -0.504019
-0.0114001 -0.503939
0.011049 -0.552455
0.0172032 -0.550692
-0.019467 -0.518453
0.0185838 -0.517552
-0.00202563 -0.544457
0.00591435 -0.535156
0.0154275 -0.523177
-0.0178349 -0.522432
0.00189367 -0.543598
0.00735366 -0.504523
-0.00190984 -0.504417
-0.00762276 -0.505156
-0.0115291 -0.539132
0.0163021 -0.545766
0.0164351 -0.506143
0.015993 -0.514109
0.00217869 -0.529366
-0.0059028 -0.532644
0.00679545 -0.535975
-0.00125636 -0.532805
-0.016859 -0.515364
-0.0166359 -0.506872
-0.025156 -0.546459
-0.0291007 -0.562405
0.0208271 -0.499482
0.0082596 -0.501081
-0.0038866 -0.503296
-0.0185025 -0.503207
-0.037481 -0.57284
-0.0330355 -0.575665
0.0278202 -0.568699
0.0262127 -0.55956
0.0325926 -0.556574
0.0317686 -0.551486
-0.0255342 -0.499175
-0.0257753 -0.5101
0.0244789 -0.509534
0.0360604 -0.494385
-0.0170006 -0.562901
0.00300125 -0.542321
0.0214929 -0.519079
-0.00236133 -0.541339
0.0250215 -0.571217
0.00876413 -0.505164
0.00557077 -0.504464
0.000462942 -0.504784
0.0026506 -0.504534
-0.00158091 -0.505417
-0.00412303 -0.505698
-0.00260738 -0.505697
-0.00721113 -0.505964
-0.0114655 -0.534647
-0.0203395 -0.539021
0.0260668 -0.543572
0.0143435 -0.538558
0.0097096 -0.505844
0.0114839 -0.506554
0.0146771 -0.508791
0.0138526 -0.511928
0.00801829 -0.519688
0.00196779 -0.525994
-0.00248458 -0.52743
-0.00847875 -0.521149
-0.01449 -0.513195
-0.0147358 -0.510045
-0.0107056 -0.507266
-0.00850158 -0.506536
-0.0283118 -0.543751
-0.0441752 -0.567905
0.0304204 -0.488429
-0.00213545 -0.500537
-0.0168584 -0.498323
-0.0529428 -0.593278
0.045336 -0.58973
0.0410838 -0.564963
0.0337538 -0.545846
-0.0400988 -0.492604
0.0477076 -0.485079
-0.027816 -0.579994
0.0289878 -0.511628
-0.0524937 -0.478819
-0.0228483 -0.518559
0.00772569 -0.55468
0.00628299 -0.50582
0.00448216 -0.505308
0.00164597 -0.505501
-0.000721189 -0.505969
-0.00251669 -0.506246
-0.00457319 -0.50669
-0.0143748 -0.532348
0.016086 -0.53397
0.00815533 -0.507375
0.00862682 -0.51182
0.00108668 -0.521759
-0.00154936 -0.522933
-0.00831756 -0.512992
-0.00692773 -0.508209
-0.0274052 -0.531286
-0.0333044 -0.53844
-0.0379858 -0.546649
-0.0515312 -0.558783
-0.0812202 -0.598274
-0.076428 -0.61029
0.0545135 -0.436545
0.0107956 -0.490408
-0.0443769 -0.461912
-0.0694906 -0.617748
0.0660733 -0.616605
0.0655902 -0.600071
0.0613251 -0.58162
0.0531256 -0.565156
0.0397222 -0.54466
0.0374036 -0.53535
-0.0549233 -0.462983
0.0625232 -0.451389
-0.0587304 -0.617956
-0.0139836 -0.572545
0.058068 -0.469358
0.0390392 -0.603657
0.0652385 -0.631657
-0.0387866 -0.500138
0.00949561 -0.559927
0.0044254 -0.506611
0.00518907 -0.507237
0.00358414 -0.505961
0.00430041 -0.50611
0.00201096 -0.505959
0.00289322 -0.505882
0.000126214 -0.506271
0.000975813 -0.506134
-0.00111191 -0.506618
-0.000436668 -0.50649
-0.00261664 -0.506906
-0.00191158 -0.506687
-0.0036962 -0.507995
-0.00297424 -0.507349
-0.00487429 -0.52334
-0.0105981 -0.526726
-0.0196705 -0.529995
0.025498 -0.529227
0.0194083 -0.529899
0.0079634 -0.526431
0.00332389 -0.524357
0.00632136 -0.508485
0.00619885 -0.510268
0.00431715 -0.514312
0.00179348 -0.517301
-0.00288951 -0.518477
-0.00434949 -0.515485
-0.0056019 -0.511271
-0.00496623 -0.509295
-0.0276989 -0.520575
-0.0374906 -0.532759
-0.0585647 -0.548811
-0.0831913 -0.5803
-0.100015 -0.62148
0.034314 -0.28356
0.0288475 -0.464662
0.00185606 -0.491148
-0.0212171 -0.478887
-0.0401628 -0.306066
-0.0884821 -0.64852
0.0909505 -0.651541
0.0843745 -0.597912
0.0515019 -0.551653
0.0350314 -0.525615
0.00422015 -0.124789
-0.0514596 -0.355169
-0.00719406 -0.11932
0.0446106 -0.33574
-0.0508886 -0.636385
0.044909 -0.489959
0.0776015 -0.424026
0.0650736 -0.651711
-0.075002 -0.437072
-0.0218349 -0.520301
0.00289658 -0.507182
0.00250436 -0.506501
0.00179429 -0.506377
0.000747021 -0.506537
-0.000281125 -0.506783
-0.00110208 -0.507149
-0.00158729 -0.507929
-0.00962786 -0.52106
-0.0196408 -0.520416
0.0168887 -0.521695
0.00602091 -0.520988
0.00281056 -0.509475
-0.000581411 -0.514831
-0.00410169 -0.515289
0.00348726 -0.517242
-0.000334795 -0.515959
-0.00182411 -0.510197
-0.017767 -0.514937
0.0178494 -0.51747
-0.0295648 -0.513651
-0.0335005 -0.518608
-0.0412462 -0.521058
-0.0469217 -0.529015
-0.059702 -0.533611
-0.0712229 -0.545803
-0.0851175 -0.557446
-0.101039 -0.576623
-0.116642 -0.596226
0.0252265 -0.300876
0.00934213 -0.451509
-0.00879422 -0.46226
-0.0240192 -0.32387
-0.121514 -0.646462
-0.116438 -0.665547
-0.108454 -0.680922
-0.100827 -0.696574
-0.0786766 -0.687392
0.083495 -0.691776
0.101438 -0.695781
0.11063 -0.682801
0.117206 -0.664406
0.121638 -0.640763
0.112794 -0.61208
0.101932 -0.584283
0.0903194 -0.560437
0.0706428 -0.547446
0.0603413 -0.529617
0.0492692 -0.524473
0.0414033 -0.521983
0.0293978 -0.516618
0.0347618 -0.124115
-0.00229266 -0.225505
-0.0413137 -0.332366
-0.0352278 -0.121561
0.0343364 -0.312361
0.000964659 -0.218935
-0.0534882 -0.675345
-0.0228118 -0.664181
0.0445812 -0.506341
0.061512 -0.679988
-0.0166288 -0.547942
0.0347 -0.658033
0.00123535 -0.507992
0.00104814 -0.50859
0.00155444 -0.507395
0.0017778 -0.506921
0.00169672 -0.507131
0.0018231 -0.50667
0.00165448 -0.506564
0.00175541 -0.506608
0.00137191 -0.506556
0.00100206 -0.506607
0.0011945 -0.50658
0.000597727 -0.506701
0.000187828 -0.506815
0.000391925 -0.506757
-0.000165117 -0.506963
-0.000474792 -0.507171
-0.000330144 -0.507062
-0.000645949 -0.507456
-0.00068285 -0.5079
-0.000687041 -0.507663
-0.000452564 -0.508519
8.98243e-06 -0.509485
-0.000261695 -0.50896
-0.0206678 -0.512163
-0.0242851 -0.512619
0.0241643 -0.51554
0.020573 -0.515041
-0.013789 -0.519115
-0.00810632 -0.513105
0.0116817 -0.519004
0.00831389 -0.518546
0.00901511 -0.514869
6.86193e-05 -0.510781
-0.000705561 -0.512123
0.00131514 -0.513762
0.000374232 -0.511902
-0.01471 -0.511409
0.0153123 -0.512484
-0.010572 -0.511234
-0.0122727 -0.511265
0.0128996 -0.512339
0.0112203 -0.512306
-0.0067227 -0.510449
-0.00319081 -0.510664
-0.00502658 -0.510531
0.00753655 -0.512463
0.00588212 -0.512478
0.00419959 -0.512518
0.00559097 -0.514665
-0.00438668 -0.512167
0.0125926 -0.514974
-0.0118582 -0.514059
-0.00185456 -0.512985
0.00207083 -0.511988
0.0110442 -0.522561
-0.0158863 -0.524046
0.0232147 -0.520169
-0.0237721 -0.515872
-0.00173622 -0.508729
-0.00137431 -0.507463
-0.000722995 -0.506943
0.000217073 -0.50666
0.00129467 -0.506438
0.00221713 -0.506387
0.00265285 -0.506786
0.00327173 -0.508003
0.0404745 -0.624965
-0.0167043 -0.597214
-0.0023962 -0.205533
-0.00241885 -0.217492
0.0472698 -0.531419
0.0730023 -0.570342
0.0940743 -0.628771
0.0876226 -0.66993
-0.0768811 -0.656067
-0.0956768 -0.637061
-0.0439853 -0.418467
0.0468691 -0.391492
-0.10113 -0.603196
-0.0685824 -0.562077
-0.0434342 -0.540299
-0.0317346 -0.525317
0.00158795 -0.519346
-0.00386887 -0.518155
-0.0663892 -0.433738
0.069095 -0.419016
0.00694167 -0.488838
-0.00875699 -0.509765
-0.00699656 -0.517339
0.00669274 -0.516069
0.0096415 -0.508714
0.00524584 -0.529406
0.0282348 -0.537799
-0.0236226 -0.536068
-0.00595491 -0.52834
-0.00530255 -0.507296
-0.00373012 -0.50631
-0.00142909 -0.506217
0.000189599 -0.505712
0.00322282 -0.505297
0.00560921 -0.505441
0.00677557 -0.50651
-0.0136086 -0.529631
0.0364799 -0.589585
-0.00792622 -0.558067
-0.0429602 -0.591593
0.0490578 -0.472654
-0.0332806 -0.487574
0.0394762 -0.554082
0.0446149 -0.578411
-0.00989672 -0.502665
0.0113877 -0.496038
-0.0594616 -0.587573
-0.0332451 -0.551575
-0.029362 -0.510028
0.0280909 -0.51004
-0.0116274 -0.505504
-0.0211746 -0.508737
-0.00980163 -0.524254
0.00925173 -0.522708
0.0200419 -0.507704
0.0126102 -0.504909
0.0243307 -0.5485
-0.0173626 -0.541323
-0.00403717 -0.505091
0.0010626 -0.503689
0.00901953 -0.552406
0.0115278 -0.53109
0.0131931 -0.552059
-0.0156384 -0.556223
0.00870958 -0.542275
-0.00597133 -0.536583
-0.00442292 -0.535669
0.000386996 -0.537271
-0.0210719 -0.552529
-0.0462066 -0.510677
0.00935366 -0.690729
-0.0240621 -0.600715
0.0058239 -0.629551
-0.00199906 -0.681655
0.0144159 -0.589999
-0.00910032 -0.690236
0.0666419 -0.482988
0.0337531 -0.565043
0.00238468 -0.681053
0.00466449 -0.615498
0.0163051 -0.550283
0.0168711 -0.263825
0.0391708 -0.306582
0.0221061 -0.252836
0.0627465 -0.365219
-0.0151058 -0.136347
0.00284281 -0.166965
0.00822203 -0.21625
-0.00221395 -0.21478
0.0131706 -0.257508
-0.0190294 -0.16587
-0.00886655 -0.176352
-0.0277966 -0.132215
0.0224739 -0.204279
0.0376002 -0.238517
-0.0398677 -0.105854
-0.0210126 -0.160588
-0.0209695 -0.277485
-0.0225083 -0.257498
-0.0424272 -0.320053
-0.00854256 -0.220393
0.0153443 -0.136761
-0.0027242 -0.167506
-0.0676394 -0.3814
-0.0188112 -0.273339
-0.000916964 -0.224023
0.018195 -0.170246
0.0278348 -0.134011
0.00861845 -0.179834
0.0398922 -0.107255
-0.0223993 -0.204992
-0.0374549 -0.239433
0.0187182 -0.167458
-0.014672 -0.412995
0.0126507 -0.443575
0.0146664 -0.379134
0.0061984 -0.484095
0 0
0 0
-0.012572 -0.194912
-0.0365638 -0.377066
-0.0270589 -0.44115
0.0159221 -0.396804
-0.0142192 -0.369784
-0.0140287 -0.436273
0.0134862 -0.177164
0 0
-0.0745229 -0.299153
-0.00777997 -0.481336
0.0301055 -0.422244
0.0377784 -0.350184
-0.0536986 -0.478204
-0.0549315 -0.480664
-0.0196166 -0.526552
-0.0840487 -0.439003
0.0116246 -0.568864
-0.0577839 -0.471378
-0.0692378 -0.443278
0.0704837 -0.454231
0.0452547 -0.493887
0.0747325 -0.456284
0.0133659 -0.536789
0.0851499 -0.429303
0.0735241 -0.425066
0.0661859 -0.456493
0.0639695 -0.388487
0.0654013 -0.385901
0.0394404 -0.326822
0.0208573 -0.271738
0.0600084 -0.381199
-0.06536 -0.398205
-0.0466456 -0.34585
-0.0699295 -0.400246
-0.0280603 -0.289611
-0.0631176 -0.399226
-0.0199446 -0.220642
-0.0382298 -0.302853
-0.0214344 -0.205848
-0.0481493 -0.36594
0.00695433 -0.0696781
0.00261219 -0.173437
-0.0236149 -0.259893
-0.0076661 -0.488598
-0.00611524 -0.486261
-0.0186354 -0.471709
-0.000542398 -0.490981
-0.0338575 -0.456334
-0.00805071 -0.488822
0.00436958 -0.489634
0.0137372 -0.482226
0.0222507 -0.458151
0.00821911 -0.480092
0.0394684 -0.435312
0.0191859 -0.481211
0.0140113 -0.20381
0.0179583 -0.188312
0.0353558 -0.279375
-0.0082725 -0.06753
0.0462303 -0.338701
0.0170888 -0.243041
-0.00659193 -0.164845
-0.0553142 -0.475055
-0.039396 -0.498297
-0.0172435 -0.526159
-0.0263591 -0.515457
0.0675143 -0.445797
0.0428442 -0.492203
0.0159144 -0.527818
0.0175568 -0.524913
-0.0615374 -0.458604
-0.047202 -0.488405
-0.0341186 -0.505969
-0.0415797 -0.495956
-0.046884 -0.486594
-0.0486041 -0.479726
-0.0555614 -0.469161
-0.0382745 -0.489037
-0.0452234 -0.477428
-0.0618527 -0.448143
-0.03686 -0.499628
0.0497249 -0.477869
0.043303 -0.484658
0.0421348 -0.490423
0.0343277 -0.500434
0.0283773 -0.501849
0.0388783 -0.497753
-0.0299746 -0.49384
-0.0330809 -0.496574
-0.0308596 -0.502033
-0.0247317 -0.503058
-0.0250651 -0.494152
-0.0216911 -0.4986
-0.0174469 -0.501442
-0.0133423 -0.500795
0.0099134 -0.498827
0.00426583 -0.498778
0.00339961 -0.50087
-0.000241587 -0.502263
-0.00648991 -0.501684
0.00424258 -0.502528
0.0285735 -0.497496
0.0345674 -0.490631
0.0259295 -0.494625
0.0402427 -0.481884
0.0208692 -0.492995
0.0170977 -0.497601
0.0219162 -0.502539
0.0145431 -0.5003
0.00878519 -0.502318
0.0108965 -0.503947
0.00494267 -0.503544
0.014311 -0.501893
0.0170712 -0.502513
0.0236519 -0.0356044
0.0230122 -0.0916287
0.0181104 -0.0477041
0.0239837 -0.134523
0 0
0 0
0.0288966 -0.0286934
0.0485316 -0.0788254
0.0389458 -0.0989285
0.0442328 -0.0574321
-0.0527251 -0.280939
-0.0633704 -0.305563
-0.0444136 -0.0568944
-0.0396077 -0.0969304
-0.0485207 -0.0779323
-0.0263699 -0.128624
0.0529538 -0.27971
0.0634298 -0.303907
-0.0290705 -0.0285616
-0.0187882 -0.0468655
-0.0246776 -0.089029
-0.0238225 -0.0352486
-0.0577632 -0.415606
-0.0291229 -0.470919
-0.0318806 -0.478088
-0.0204755 -0.483441
-0.0334094 -0.469841
-0.00506112 -0.489885
-0.0458358 -0.442663
-0.0399638 -0.476032
-0.0265069 -0.486559
-0.0541053 -0.438087
-0.0593075 -0.439059
-0.0510125 -0.460009
-0.063182 -0.418684
-0.0529833 -0.408774
-0.0443033 -0.328655
-0.0579568 -0.382546
-0.0525551 -0.36434
0.0482165 -0.339914
0.0537519 -0.361948
0.0377494 -0.308008
0.0633594 -0.399814
0.0539108 -0.382249
0.060145 -0.439917
0.0638106 -0.421575
0.0587243 -0.412386
0.0668585 -0.435606
0.0517129 -0.415138
0.0533006 -0.455807
0.0568475 -0.462357
0.0332128 -0.481674
0.0230207 -0.485086
0.0215688 -0.489023
0.0208604 -0.483277
0.0091292 -0.488979
0.011378 -0.492702
0.0431027 -0.472307
0.043182 -0.448905
0.0329981 -0.469628
0.0458132 -0.459622
0.0562256 -0.472345
0.0510345 -0.482071
0.0622109 -0.458444
0.0314349 -0.508071
0.0560216 -0.470446
0.046966 -0.488011
0.0358482 -0.50286
-0.00569001 -0.497985
-0.0138102 -0.496584
-0.00928044 -0.499832
-0.0219597 -0.49235
0.00125427 -0.496047
-0.0035742 -0.491281
-0.0140374 -0.491016
0.000118095 -0.493188
0.00907418 -0.644173
-0.00984886 -0.642389
-0.00639254 -0.665751
-0.00797162 -0.603328
-0.021577 -0.630791
-0.016475 -0.677359
0.0143759 -0.669638
0.0274902 -0.65541
0.0203441 -0.625036
0.023469 -0.554906
0.009078 -0.58295
0.0180973 -0.592945
-0.00156822 -0.575968
0.0367572 -0.604608
0.0377148 -0.534338
0.0294203 -0.530067
0.0785361 -0.396502
0.0743545 -0.333165
0.06568 -0.354666
0.0463273 -0.338076
0.0560692 -0.323369
0.0837774 -0.374195
-0.0741988 -0.335073
-0.0818771 -0.407648
-0.0676207 -0.364914
-0.0579451 -0.332936
-0.0520908 -0.356112
-0.0823979 -0.375981
-0.0706829 -0.460573
-0.0717485 -0.466916
-0.0515783 -0.490067
-0.0909461 -0.440645
-0.0685231 -0.483493
-0.0304764 -0.53076
-0.0357056 -0.511377
-0.0704616 -0.455539
-0.0790359 -0.437268
-0.00159115 -0.557596
0.0132288 -0.577372
-0.00291034 -0.549174
0.028148 -0.608762
0.0270314 -0.596964
-0.00519867 -0.543035
-0.0210615 -0.522028
-0.0180731 -0.53396
-5.29928e-06 -0.570674
-0.0566269 -0.47358
-0.0641769 -0.458207
-0.0647168 -0.459784
-0.0647117 -0.452435
-0.0680709 -0.437469
-0.0718544 -0.439895
-0.0665257 -0.458547
-0.0377772 -0.49965
-0.0461144 -0.488865
0.0280494 -0.516745
0.0145465 -0.541338
0.0302813 -0.520425
-0.0028153 -0.567089
0.0451217 -0.498242
0.0453301 -0.490833
0.0295639 -0.511553
0.0724392 -0.464881
0.0853958 -0.448246
0.0826624 -0.44308
0.0819354 -0.466316
0.0925866 -0.434375
0.0810778 -0.426093
0.0802398 -0.438458
0.0616061 -0.477502
0.055122 -0.495564
0.0747027 -0.43882
0.071848 -0.441422
0.0681952 -0.455084
0.0711191 -0.421398
0.0705835 -0.437288
0.0580427 -0.471322
0.0582903 -0.472266
0.0769025 -0.43958
0.0753942 -0.424274
0.0759605 -0.407003
0.077656 -0.403893
0.0643354 -0.379456
0.0490107 -0.348785
0.0738824 -0.407207
0.0714568 -0.405964
0.0705976 -0.407878
0.0681099 -0.405196
0.0531838 -0.361182
-0.0695386 -0.395001
-0.0823572 -0.41673
-0.07862 -0.4186
-0.0754967 -0.420603
-0.0556713 -0.367497
-0.0719731 -0.417252
-0.0705586 -0.422269
-0.0577906 -0.376128
-0.0676455 -0.417326
-0.0315261 -0.508051
-0.0195932 -0.5232
-0.0282815 -0.512638
-0.0291344 -0.511973
-0.0155206 -0.5281
-0.0393075 -0.499039
0.0148319 -0.53092
0.000606016 -0.549776
-0.00126785 -0.555957
0.0033555 -0.543893
-0.0107983 -0.564152
-0.0157206 -0.582657
0.0296643 -0.509737
0.0299996 -0.509028
0.0169044 -0.525873
0.0301742 -0.508661
0.00476842 -0.541232
0.043959 -0.490732
0.0521649 -0.479379
0.0368643 -0.500665
0.0100344 -0.534172
0.025087 -0.515622
0.0389661 -0.499148
0.0460267 -0.48891
-0.0020912 -0.549286
0.0174965 -0.525108
0.0211527 -0.520856
0.00777193 -0.536126
-0.00431013 -0.541983
0.00837254 -0.556934
-0.00450194 -0.541113
0.0234205 -0.575969
0.02217 -0.571876
-0.0034865 -0.541354
-0.0054039 -0.541265
0.0118719 -0.606743
0.0212614 -0.644726
0.0260309 -0.625604
0.00793695 -0.663686
0.0237439 -0.673676
0.0387351 -0.639688
-0.00359969 -0.590659
-0.0190813 -0.640296
-0.00304284 -0.650021
-0.00793304 -0.615966
-0.0142175 -0.670032
-0.0180307 -0.570619
-0.0318762 -0.619995
-0.0270235 -0.656155
-0.053008 -0.541177
-0.0436907 -0.592418
-0.0331585 -0.558877
-0.0408307 -0.638175
-0.056293 -0.615881
0.0489676 -0.669741
0.0419215 -0.689324
0.0557241 -0.696285
-0.0734715 -0.586001
-0.0855209 -0.538115
0.0696307 -0.702718
0.0521656 -0.654477
0.064915 -0.535214
0.0475104 -0.529998
0.0488455 -0.572585
0.040935 -0.637661
0.0563025 -0.615461
-0.0396877 -0.669496
-0.0512276 -0.694632
-0.0359682 -0.692003
-0.0658254 -0.70118
0.0721624 -0.585989
0.0872862 -0.538846
-0.037221 -0.641797
0.0804991 -0.553948
0.0895793 -0.548827
0.0797024 -0.54246
0.0965793 -0.554514
0.0252274 -0.510453
0.0216362 -0.510018
0.0720812 -0.537573
0.0716037 -0.559223
0.0814001 -0.565949
0.096117 -0.572494
0.110827 -0.57621
0.105389 -0.563939
0.117748 -0.586455
0.0180997 -0.509703
0.0156619 -0.509544
0.0875431 -0.577586
0.11732 -0.626769
0.132483 -0.630499
0.128954 -0.61586
0.134868 -0.644415
0.0132434 -0.509446
0.0115805 -0.509414
0.122522 -0.600826
0.102683 -0.621415
0.107987 -0.635607
0.119148 -0.652963
0.130697 -0.66903
0.133815 -0.657418
0.127237 -0.67897
0.123884 -0.703761
0.129809 -0.697729
0.106456 -0.647372
0.105927 -0.689288
0.113008 -0.701078
0.11807 -0.69481
0.106648 -0.70546
0.135196 -0.690374
0.139984 -0.681613
0.123136 -0.687898
0.0992685 -0.677382
0.0951031 -0.683905
0.0926339 -0.694006
0.0902338 -0.706951
0.0989217 -0.707366
0.0805126 -0.705811
0.143857 -0.671383
0.146588 -0.65961
0.0858486 -0.680469
-0.0901121 -0.692578
-0.0984967 -0.70742