<?xml version="1.0"?>
<VTKFile type="UnstructuredGrid">
  <UnstructuredGrid>
  <Piece NumberOfPoints="3487"  NumberOfCells="1698">
    <Points>
      <DataArray type="Float64" NumberOfComponents="3" format="ascii">
39.9725 48.5027 0
60.0283 48.5015 0
40.6338 48.6337 0
41.2966 48.7558 0
41.9604 48.8689 0
42.6256 48.973 0
43.2921 49.068 0
43.9596 49.154 0
44.6282 49.231 0
45.2978 49.2989 0
45.9681 49.3577 0
46.6391 49.4075 0
47.3107 49.4483 0
47.9828 49.48 0
48.6552 49.5026 0
49.3279 49.5161 0
50.0007 49.5206 0
50.6734 49.5161 0
51.3461 49.5024 0
52.0185 49.4797 0
52.6905 49.4479 0
53.3621 49.4071 0
54.0331 49.3572 0
54.7034 49.2983 0
55.3729 49.2303 0
56.0415 49.1533 0
56.709 49.0672 0
57.3753 48.9721 0
58.0405 48.868 0
58.7043 48.7548 0
59.3669 48.6326 0
39.9912 49.5192 0
39.9912 49.2652 0
39.988 49.0111 0
39.9816 48.7569 0
19.8604 69.3893 0
39.9879 49.7809 0
39.9812 50.0424 0
39.9654 50.4208 0
39.9424 50.7987 0
39.8965 51.3448 0
39.8356 51.8894 0
39.7209 52.674 0
39.5752 53.4534 0
39.3097 54.5696 0
38.9804 55.669 0
38.7031 56.4515 0
38.3934 57.222 0
38.0519 57.9789 0
37.6793 58.721 0
37.0862 59.766 0
36.4314 60.7736 0
35.7173 61.74 0
-0.071714 49.3211 0
17.2511 69.2058 0
14.6878 68.6843 0
12.2142 67.8337 0
9.87239 66.6683 0
7.70229 65.208 0
11.589 31.4743 0
0.140303 46.5031 0
0.750063 43.7442 0
1.74583 41.0999 0
0 0 0
0.105623 3.69883 0
0.508863 7.38742 0
1.19967 11.0384 0
2.17231 14.6238 0
3.08432 17.2619 0
49.9996 -0.460096 0
5.1116 0 0
10.2232 0 0
15.3348 0 0
100 0 0
57.4152 -0.445812 0
64.8309 -0.393629 0
72.2365 -0.283854 0
88.412 31.4732 0
99.8945 3.69885 0
99.4914 7.38718 0
98.8006 11.0381 0
97.828 14.6235 0
96.916 17.2615 0
100.072 49.3206 0
99.8599 46.5026 0
99.2502 43.7437 0
98.2544 41.0993 0
80.1395 69.3885 0
99.9106 51.9309 0
99.4087 54.4979 0
98.5754 56.9771 0
97.4252 59.3263 0
95.9781 61.5051 0
60.0093 49.518 0
77.6283 69.2433 0
75.1551 68.785 0
72.7586 68.0208 0
70.4766 66.9625 0
68.9857 66.068 0
67.5779 65.0476 0
66.2639 63.909 0
65.0536 62.6606 0
64.2828 61.7389 0
63.5687 60.7725 0
62.9139 59.7649 0
62.3209 58.7199 0
61.6068 57.2209 0
61.0198 55.6678 0
60.6906 54.5686 0
60.4251 53.4522 0
60.2794 52.6728 0
60.0093 49.2639 0
60.0126 49.0098 0
60.019 48.7557 0
52.813 29.7812 0
26.5558 36.6052 0
40.3539 23.9183 0
24.9722 22.2413 0
71.8982 22.2547 0
72.6998 43.6395 0
54.7922 23.7351 0
15.2763 47.0588 0
38.3558 49.1268 0
23.5232 64.8768 0
7.67301 7.69985 0
91.9682 7.67745 0
29.1233 56.5503 0
37.1685 51.5937 0
28.0838 46.8776 0
29.721 47.8394 0
71.518 46.3636 0
30.9774 48.7383 0
70.5217 47.84 0
31.6392 45.333 0
30.8851 46.7844 0
70.0655 46.3544 0
68.9788 44.6832 0
31.2779 49.8321 0
30.8854 51.0522 0
28.1756 48.8301 0
45.313 40.9805 0
53.8401 40.6014 0
56.0213 40.1503 0
73.1348 47.1142 0
70.1259 49.0788 0
68.3208 42.1183 0
32.3222 42.4489 0
26.1351 45.3609 0
27.6803 44.37 0
30.3135 43.0042 0
70.4025 42.3153 0
72.6782 45.6297 0
44.853 42.7725 0
51.4296 41.6791 0
55.4056 42.2651 0
32.4422 48.777 0
68.5661 49.3174 0
39.4862 41.763 0
35.4486 43.0755 0
32.8955 46.2313 0
33.5729 47.9777 0
67.1087 47.9209 0
67.9822 46.1599 0
65.0634 42.738 0
60.41 41.4002 0
32.3503 51.0918 0
28.1967 50.685 0
41.7896 36.9886 0
46.8279 37.3924 0
52.0469 39.5642 0
58.668 38.9339 0
26.5802 51.5764 0
24.2779 50.009 0
74.2459 49.6193 0
71.1831 50.3259 0
69.1645 51.9077 0
67.9387 52.0439 0
59.7485 36.0559 0
66.4885 40.3682 0
34.1214 40.7449 0
36.0454 35.4899 0
23.1721 46.8458 0
21.6478 42.9599 0
28.3655 41.4897 0
74.3163 44.3906 0
76.6535 48.2248 0
43.0589 43.3602 0
46.2716 42.6463 0
49.9683 42.694 0
48.4342 42.477 0
51.7623 43.7313 0
54.0862 43.8469 0
52.9047 44.1425 0
56.2688 43.3955 0
33.8736 49.0721 0
33.7687 50.5835 0
66.5545 51.3966 0
66.6054 49.4079 0
41.8371 43.5974 0
40.709 43.3347 0
38.4686 42.9409 0
37.1497 43.5446 0
35.3505 45.2488 0
34.3267 46.5253 0
66.0223 46.2486 0
65.0141 44.9782 0
63.182 43.2277 0
61.6963 42.7799 0
58.8728 43.1946 0
57.5345 43.5112 0
33.3762 51.8045 0
29.1368 53.4029 0
40.8511 30.717 0
50.8841 35.7066 0
55.6583 33.9899 0
23.525 53.1128 0
76.9485 51.5832 0
70.2659 53.0109 0
66.4302 52.6368 0
65.4502 34.8754 0
30.9797 34.2973 0
19.428 46.9585 0
26.145 39.7305 0
71.9728 33.8214 0
72.0399 41.0778 0
77.4902 44.9872 0
43.1705 44.802 0
45.8118 44.4384 0
48.7656 44.5292 0
51.443 45.1575 0
53.7676 45.2731 0
56.2155 45.0934 0
34.8997 49.7844 0
65.0967 49.9999 0
40.8197 44.7763 0
38.3723 45.1167 0
36.029 46.9964 0
64.1395 46.7405 0
61.6451 45.0227 0
58.8206 44.8923 0
36.0491 52.0594 0
34.8943 52.8187 0
33.476 53.3263 0
31.8667 55.1123 0
26.0389 58.5603 0
22.9454 56.9583 0
32.4295 22.448 0
47.0431 26.402 0
63.112 22.7781 0
19.9427 54.6634 0
80.233 53.9294 0
75.8451 55.4461 0
71.9795 55.808 0
69.1272 55.1373 0
65.8015 53.6462 0
64.1241 53.4954 0
68.1209 28.7329 0
26.8138 29.828 0
17.1993 51.3948 0
14.5908 42.1182 0
22.4372 33.7961 0
84.9213 46.5211 0
84.7645 51.6594 0
75.1465 37.6479 0
81.2197 43.6205 0
42.4589 46.1322 0
41.4188 45.9403 0
44.9674 45.9779 0
43.6815 45.8948 0
47.7373 45.9191 0
46.3871 45.8517 0
50.6201 46.2322 0
49.2725 46.1362 0
53.0501 46.6272 0
51.7629 46.6435 0
55.5118 46.2394 0
54.2323 46.3315 0
58.0596 46.1927 0
56.7784 46.3552 0
36.3697 48.318 0
36.0191 49.3179 0
35.914 50.8304 0
63.4031 51.7646 0
63.8426 50.7514 0
63.8938 48.7613 0
63.8397 47.8595 0
40.29 45.677 0
39.3742 45.8558 0
38.0543 46.4586 0
37.3941 47.0413 0
62.8313 46.5887 0
62.0146 46.2656 0
60.528 45.8188 0
59.3987 45.8756 0
38.0403 52.2665 0
36.1486 53.5826 0
34.0322 56.4352 0
29.539 59.487 0
22.8023 61.0116 0
21.7602 15.2499 0
39.9829 15.9504 0
48.9022 11.2183 0
56.9299 16.6729 0
76.6197 15.4746 0
15.5727 56.6939 0
84.5878 57.1275 0
73.4717 59.1421 0
66.5572 55.3026 0
62.4814 53.2715 0
82.9422 7.76614 0
79.7098 22.4043 0
16.3042 7.8508 0
18.3762 22.131 0
10.6839 46.4022 0
16.6086 35.7219 0
15.5717 30.1622 0
89.4523 49.2697 0
83.2628 30.9986 0
81.5621 39.0002 0
41.9295 47.0334 0
44.2566 47.3083 0
46.8936 47.4589 0
49.592 47.6223 0
52.2272 47.702 0
54.7945 47.5936 0
57.356 47.339 0
37.3845 49.364 0
37.9055 51.0364 0
62.1998 50.5261 0
62.585 48.6104 0
39.9728 47.0203 0
38.3961 47.7812 0
38.5088 48.551 0
61.7676 48.2483 0
61.714 47.3856 0
59.7675 47.12 0
38.8765 50.8002 0
61.3606 50.7331 0
39.1763 52.5813 0
38.4394 53.1381 0
38.1421 54.2457 0
36.9874 55.0043 0
36.4749 56.7748 0
34.8192 58.29 0
33.3028 60.1401 0
30.676 62.2386 0
27.9059 64.378 0
27.1853 7.65529 0
38.6621 8.09408 0
59.871 8.3123 0
71.7514 7.72259 0
19.149 64.3073 0
14.8558 62.5616 0
10.6617 59.7642 0
6.21936 56.7108 0
5.94304 50.7837 0
94.2938 51.8782 0
93.3904 56.93 0
89.4122 60.2826 0
84.6642 62.8061 0
79.56 64.4926 0
74.6556 63.5433 0
70.3406 62.2791 0
66.8961 60.8402 0
65.2687 58.1762 0
62.7616 56.8607 0
62.1112 55.3348 0
61.8138 54.2273 0
61.0927 52.4958 0
93.513 14.4753 0
89.7927 20.5898 0
86.0825 24.8759 0
6.2331 14.4698 0
13.0324 24.352 0
9.7914 20.583 0
5.72248 45.2234 0
5.63804 40.287 0
12.3318 34.4421 0
94.2721 46.7667 0
88.1086 36.7651 0
93.3831 42.0515 0
41.0922 47.7987 0
40.431 47.672 0
42.1334 47.9906 0
43.4646 48.1895 0
42.7977 48.099 0
44.7513 48.2727 0
46.0909 48.3994 0
45.4202 48.3451 0
47.4417 48.4669 0
48.786 48.5212 0
48.1135 48.5031 0
50.1339 48.6172 0
51.4791 48.599 0
50.8066 48.6171 0
52.7666 48.5827 0
54.109 48.492 0
53.4384 48.5463 0
55.3891 48.3998 0
56.7249 48.2368 0
56.0581 48.3273 0
58.007 48.0742 0
59.3326 47.839 0
58.6713 47.9656 0
39.3598 51.2541 0
39.3064 51.7993 0
60.9626 51.7139 0
60.9092 51.1687 0
38.0047 50.1275 0
39.1292 49.3147 0
61.8001 49.7191 0
61.8219 49.1508 0
60.9825 49.3574 0
39.5144 47.8504 0
39.1699 47.9684 0
60.9503 47.9257 0
60.4628 47.7818 0
39.4591 50.3446 0
60.5094 50.3616 0
39.4835 49.7049 0
39.4785 49.9665 0
60.4901 49.9835 0
60.4851 49.7219 0
39.637 49.1286 0
39.6274 48.6207 0
39.6354 48.8746 0
60.5066 49.153 0
60.5083 48.899 0
60.5163 48.6452 0
61.0043 48.7888 0
39.2825 48.7385 0
60.9609 49.926 0
38.9758 49.8908 0
60.8973 47.0625 0
39.0564 47.1983 0
62.6395 49.5126 0
37.0335 50.3642 0
61.7605 51.5401 0
38.7772 51.7095 0
58.6377 47.1763 0
56.0744 47.5014 0
53.5146 47.6857 0
50.9398 47.7183 0
48.2442 47.5263 0
45.5429 47.3914 0
42.9701 47.2251 0
40.8889 46.8413 0
89.1809 44.4389 0
10.9134 40.5826 0
13.2799 16.0639 0
85.8793 16.2654 0
63.2027 55.0025 0
68.9684 58.1489 0
79.0091 59.5125 0
89.3514 54.5423 0
11.7174 52.4981 0
19.1679 59.3346 0
66.6865 15.525 0
30.7865 15.2601 0
26.287 61.7953 0
32.1143 57.6684 0
34.9936 54.3416 0
37.3033 52.8235 0
62.5311 47.7083 0
37.7351 48.3636 0
75.9027 28.4425 0
20.5524 28.3591 0
47.9188 19.0217 0
60.1592 44.575 0
63.1318 45.4694 0
37.0524 45.7193 0
39.6913 44.513 0
65.1485 48.0108 0
65.0461 51.9896 0
34.7945 51.2964 0
35.0042 48.2726 0
57.4817 45.209 0
54.9493 44.9775 0
52.5857 45.5688 0
50.3005 44.7463 0
47.2309 44.3122 0
44.3926 44.5645 0
41.9483 45.0392 0
74.3375 42.4018 0
80.2889 48.5551 0
17.991 43.0288 0
21.2832 50.4649 0
34.4698 29.4464 0
59.9666 29.9897 0
67.8144 53.2838 0
73.4307 52.7084 0
54.4563 38.4868 0
46.5148 32.6463 0
26.1955 55.0728 0
31.9577 52.3124 0
69.7449 39.7514 0
30.996 40.1212 0
57.5874 41.8136 0
63.2329 40.9863 0
66.8965 44.4876 0
33.6485 44.7789 0
37.2461 41.3699 0
41.726 42.1558 0
68.0632 50.8043 0
32.7427 49.8712 0
53.2235 42.7163 0
49.6365 40.6419 0
74.2952 46.3801 0
25.732 42.8554 0
71.9744 47.8487 0
26.5382 47.8679 0
69.0693 47.8313 0
32.1415 47.6832 0
71.0619 44.8785 0
29.6287 45.8864 0
29.8128 49.793 0
88.1274 34.126 0
96.892 38.6248 0
91.2862 35.4383 0
92.2324 38.2852 0
96.0814 37.4672 0
88.5053 40.4785 0
3.10822 38.6253 0
11.91 32.913 0
10.0234 34.7377 0
3.91899 37.4677 0
8.32083 37.2116 0
11.7016 36.7583 0
11.4112 22.4692 0
11.0095 26.3035 0
9.38866 24.4256 0
11.9008 28.757 0
4.14662 19.8407 0
5.35582 22.3513 0
8.246 22.6795 0
11.5342 18.321 0
13.1535 20.2093 0
8.01045 17.5305 0
6.96731 20.213 0
5.18738 17.1522 0
6.70721 24.7849 0
7.8134 26.5569 0
4.20185 14.5472 0
9.75441 15.2696 0
87.9384 22.7342 0
90.4036 24.4277 0
88.5482 26.5621 0
91.5464 22.6821 0
95.8536 19.8403 0
94.6443 22.3508 0
87.6783 29.0634 0
85.9838 20.5721 0
[...]
    <PointData>
      <DataArray type="Float64" NumberOfComponents="2" Name="Displacement" format="ascii">
-0.00173136 -0.481842
0.00247919 -0.483032
-0.00052468 -0.481355
0.000315374 -0.480778
0.000758346 -0.480381
0.00106583 -0.480043
0.00125617 -0.479794
0.00137957 -0.479624
0.00143128 -0.479476
0.00143819 -0.479374
0.00140133 -0.479315
0.00133317 -0.47929
0.00123325 -0.479269
0.00111213 -0.479269
0.00097194 -0.47929
0.000820722 -0.479329
0.000659741 -0.479363
0.000496746 -0.479411
0.000335777 -0.479473
0.000182424 -0.479551
4.26667e-05 -0.479627
-7.99633e-05 -0.479726
-0.000179004 -0.479848
-0.000249383 -0.48
-0.000278014 -0.480163
-0.000265832 -0.480374
-0.000199296 -0.480639
-7.16703e-05 -0.480969
0.000195132 -0.481319
0.000575816 -0.481794
0.00128901 -0.482448
-0.008807 -0.480795
-0.00717152 -0.480874
-0.00554508 -0.481014
-0.00385539 -0.481319
-0.13959 -0.610659
-0.0103866 -0.48079
-0.0119689 -0.48082
-0.0142755 -0.480909
-0.0166023 -0.481057
-0.0199749 -0.481367
-0.0233881 -0.481787
-0.0283935 -0.48259
-0.0334601 -0.48362
-0.0408643 -0.485519
-0.0483145 -0.487891
-0.0536853 -0.489893
-0.05903 -0.49214
-0.0643198 -0.494643
-0.069533 -0.497376
-0.0768926 -0.501726
-0.0840069 -0.506516
-0.0908037 -0.511725
-0.071714 -0.678881
-0.138404 -0.623084
-0.135811 -0.634199
-0.132144 -0.643887
-0.127614 -0.652161
-0.122525 -0.659123
0.0926617 -0.423539
-0.0594569 -0.677241
-0.0449861 -0.672852
-0.0281488 -0.665274
0 0
-0.0336467 -0.0304466
-0.0474385 -0.0503697
-0.0491056 -0.0664069
-0.0404859 -0.0861342
-0.0288143 -0.105375
-0.0003991 -0.460096
0 0
0 0
0 0
0 0
0.026845 -0.445812
0.0540776 -0.393629
0.0712982 -0.283854
-0.0916561 -0.424586
0.0337832 -0.0304027
0.0476513 -0.0505505
0.049355 -0.0666873
0.0407633 -0.0865012
0.0290927 -0.105753
0.0719301 -0.679408
0.0596715 -0.677757
0.0452814 -0.673352
0.0283962 -0.665869
0.139525 -0.611494
0.0817164 -0.679596
0.0902142 -0.678468
0.0978148 -0.676559
0.104643 -0.673689
0.11102 -0.670107
0.00931214 -0.482017
0.13908 -0.598473
0.136806 -0.584628
0.132504 -0.570252
0.126093 -0.555738
0.120378 -0.545848
0.113658 -0.536221
0.105944 -0.527033
0.0973405 -0.518391
0.0908975 -0.51283
0.0841202 -0.507642
0.0770264 -0.502866
0.0696877 -0.498528
0.0592297 -0.493331
0.0485516 -0.489057
0.0411303 -0.486711
0.0337745 -0.484836
0.0287278 -0.483808
0.00772561 -0.482117
0.00614472 -0.482273
0.00446546 -0.482579
-0.0093666 -0.46797
0.0415939 -0.466058
0.0324434 -0.449778
0.0551135 -0.365115
-0.0555322 -0.386714
-0.00848607 -0.504487
-0.0167612 -0.461126
-0.038943 -0.572158
-0.00702484 -0.488727
-0.115033 -0.589467
-0.0356755 -0.0648686
0.035068 -0.0661222
-0.0606847 -0.545583
-0.0222593 -0.496601
-0.00680888 -0.516809
-0.00945178 -0.515794
0.00388737 -0.514443
-0.012474 -0.514945
0.0101709 -0.517608
0.00511811 -0.50107
-0.00255695 -0.508326
0.00193132 -0.510408
-0.00715647 -0.501226
-0.0179918 -0.517468
-0.0253932 -0.522763
-0.0171544 -0.524835
0.00815751 -0.476315
-0.00640111 -0.476838
-0.0107843 -0.476762
0.010409 -0.522603
0.0162071 -0.520968
-0.0184065 -0.490467
0.0175729 -0.48962
-0.00189609 -0.515027
0.00560381 -0.506242
0.01459 -0.494928
-0.0168615 -0.494216
0.00176593 -0.514227
0.00696208 -0.477322
-0.00180872 -0.477216
-0.00721719 -0.477921
-0.0108464 -0.510054
0.0153522 -0.516323
0.0155473 -0.478855
0.0151312 -0.486385
0.00209091 -0.500813
-0.00553471 -0.503924
0.00637742 -0.50707
-0.00121988 -0.504061
-0.0159491 -0.487568
-0.0157372 -0.479543
-0.0237065 -0.516989
-0.0274429 -0.532033
0.0196859 -0.472525
0.00780861 -0.474042
-0.00367708 -0.476148
-0.0174948 -0.476062
-0.0353591 -0.541889
-0.031174 -0.544533
0.0262431 -0.53796
0.0247137 -0.529348
0.0307283 -0.526546
0.0299469 -0.521744
-0.0241327 -0.472227
-0.024363 -0.482568
0.0231389 -0.482038
0.0340697 -0.467678
-0.0160447 -0.532442
0.00282741 -0.512954
0.0203093 -0.491032
-0.00224393 -0.512072
0.0236134 -0.540313
0.00829978 -0.477934
0.00527369 -0.477264
0.00043719 -0.477565
0.00250852 -0.477328
-0.00149927 -0.478167
-0.00390818 -0.478435
-0.00247257 -0.478434
-0.00683182 -0.47869
-0.0107835 -0.505824
-0.0191576 -0.509965
0.0245621 -0.514269
0.0134993 -0.509521
0.00919594 -0.478581
0.0108731 -0.479253
0.0138893 -0.481366
0.0131116 -0.484332
0.00760465 -0.491672
0.00189367 -0.497636
-0.00238184 -0.498991
-0.00803979 -0.493051
-0.0137139 -0.485528
-0.0139455 -0.482552
-0.0101381 -0.479926
-0.00805421 -0.479235
-0.0266819 -0.514437
-0.0416673 -0.537249
0.0287431 -0.462018
-0.00201925 -0.473518
-0.0159334 -0.471411
-0.0499671 -0.561189
0.0427888 -0.557826
0.0387461 -0.534473
0.031816 -0.516424
-0.0378823 -0.465984
0.0450564 -0.458844
-0.0262766 -0.548562
0.0273753 -0.48396
-0.049566 -0.452904
-0.0215884 -0.490536
0.00729225 -0.524657
0.00595711 -0.478558
0.00424733 -0.478067
0.00155861 -0.478247
-0.000685893 -0.47869
-0.00238939 -0.478955
-0.00434058 -0.47938
-0.0135269 -0.503659
0.0151407 -0.505194
0.00773161 -0.480036
0.0081793 -0.484244
0.0010632 -0.493643
-0.00150043 -0.494752
-0.00788792 -0.485352
-0.00657236 -0.480826
-0.025819 -0.502671
-0.0313892 -0.50943
-0.0358114 -0.517183
-0.0486014 -0.528649
-0.0766456 -0.565949
-0.0721349 -0.577279
0.0515062 -0.412842
0.0102015 -0.463866
-0.0419376 -0.436858
-0.065604 -0.584293
0.0623788 -0.583209
0.0618993 -0.567625
0.0578576 -0.550215
0.0501082 -0.53467
0.037447 -0.51531
0.0352539 -0.506518
-0.0518751 -0.437899
0.059027 -0.426919
-0.0554694 -0.584447
-0.013259 -0.541434
0.0547985 -0.443928
0.036904 -0.570881
0.061624 -0.59738
-0.0366183 -0.473075
0.00898595 -0.52957
0.00420479 -0.479312
0.0049298 -0.479909
0.00340111 -0.478688
0.00408235 -0.478833
0.00190627 -0.478681
0.0027439 -0.47861
0.000117412 -0.478976
0.000923837 -0.478847
-0.00105897 -0.479306
-0.000417376 -0.479184
-0.0024889 -0.479583
-0.00181839 -0.479373
-0.0035184 -0.480624
-0.00283125 -0.480008
-0.00456153 -0.495145
-0.00996187 -0.498349
-0.0185214 -0.501444
0.024017 -0.500728
0.0182728 -0.501356
0.00747557 -0.498069
0.00309822 -0.496105
0.0060016 -0.481092
0.00588705 -0.482782
0.00411151 -0.486608
0.00172999 -0.489435
-0.002765 -0.490544
-0.00414258 -0.487717
-0.00532394 -0.483731
-0.00472211 -0.481859
-0.0260903 -0.49256
-0.0353363 -0.50407
-0.0552346 -0.51924
-0.0784957 -0.548985
-0.0943959 -0.587866
0.0324097 -0.26811
0.0272823 -0.439432
0.00175668 -0.464497
-0.0200667 -0.452902
-0.0379473 -0.289387
-0.0835485 -0.613346
0.085876 -0.616203
0.0796199 -0.565614
0.0485678 -0.521922
0.0330103 -0.497326
0.00401375 -0.118004
-0.0485715 -0.335861
-0.00682723 -0.112839
0.0420918 -0.317499
-0.0481317 -0.601767
0.0423517 -0.463373
0.0731785 -0.401005
0.0615107 -0.616273
-0.0707349 -0.413351
-0.0205875 -0.492087
0.00276179 -0.479855
0.00238137 -0.4792
0.0017027 -0.479078
0.000706691 -0.479228
-0.000270755 -0.479461
-0.00105319 -0.479811
-0.00152138 -0.480558
-0.00904518 -0.492999
-0.0184883 -0.492402
0.0158921 -0.493609
0.00564262 -0.492929
0.00268766 -0.482038
-0.000512047 -0.487107
-0.0038333 -0.487544
0.00325319 -0.48939
-0.000353016 -0.488173
-0.00175597 -0.482721
-0.0167178 -0.487228
0.0167959 -0.489622
-0.0278476 -0.486025
-0.0315639 -0.490707
-0.0388753 -0.493024
-0.0442357 -0.50054
-0.0563022 -0.504886
-0.0671833 -0.516405
-0.0803058 -0.527405
-0.0953437 -0.545519
-0.11008 -0.564034
0.0238862 -0.284442
0.00886859 -0.426968
-0.00834735 -0.437145
-0.0227521 -0.306192
-0.114694 -0.611455
-0.109917 -0.62945
-0.102405 -0.643931
-0.0952388 -0.658665
-0.0743729 -0.649961
0.0789132 -0.654108
0.0958112 -0.657923
0.104454 -0.645709
0.110638 -0.628379
0.114807 -0.60608
0.10645 -0.579005
0.0961872 -0.552756
0.0852163 -0.530233
0.0666343 -0.517959
0.0569026 -0.501117
0.0464482 -0.496255
0.0390223 -0.4939
0.0276899 -0.488828
0.0329584 -0.117471
-0.00204835 -0.213362
-0.0389426 -0.314368
-0.0334013 -0.115058
0.0323431 -0.295469
0.000788089 -0.207154
-0.0506296 -0.638541
-0.0216923 -0.627956
0.0420128 -0.478775
0.0581941 -0.64294
-0.015615 -0.518097
0.0329 -0.622163
0.00119432 -0.480628
0.00102212 -0.481202
0.00148921 -0.480054
0.00169463 -0.4796
0.00162052 -0.479801
0.00173372 -0.479358
0.0015711 -0.479256
0.00166803 -0.479298
0.00130125 -0.479246
0.000949153 -0.479293
0.00113229 -0.479269
0.000564546 -0.479382
0.000174705 -0.479491
0.00036883 -0.479436
-0.000161286 -0.479632
-0.000456787 -0.479831
-0.000318614 -0.479726
-0.000621657 -0.480103
-0.000660774 -0.480527
-0.000662441 -0.4803
-0.000449006 -0.48112
-2.2494e-05 -0.482047
-0.00027266 -0.481542
-0.0194524 -0.484613
-0.0228652 -0.485046
0.0227514 -0.487807
0.0193632 -0.487333
-0.0129686 -0.491168
-0.00760847 -0.485487
0.0109807 -0.491063
0.0078052 -0.490626
0.00846534 -0.487156
9.92748e-05 -0.483282
-0.000630625 -0.484551
0.00120541 -0.486101
0.000318583 -0.484342
-0.0138327 -0.483896
0.0144002 -0.484915
-0.00993113 -0.483726
-0.0115344 -0.483757
0.0121252 -0.484775
0.0105422 -0.484741
-0.00630336 -0.482979
-0.00297683 -0.483176
-0.00470551 -0.483054
0.00707098 -0.484884
0.00551246 -0.484895
0.00392775 -0.48493
0.00523806 -0.486959
-0.00410286 -0.484597
0.0118375 -0.48726
-0.0111455 -0.486393
-0.00178666 -0.485361
0.00199041 -0.484417
0.0103807 -0.49442
-0.014949 -0.495824
0.021858 -0.492175
-0.0223829 -0.488116
-0.00166859 -0.481323
-0.0013146 -0.480112
-0.00069137 -0.479614
0.000202924 -0.479345
0.00122727 -0.479135
0.00210586 -0.47909
0.00252657 -0.479475
0.00312074 -0.480639
0.0383034 -0.590959
-0.0158709 -0.564692
-0.00233923 -0.194413
-0.0022175 -0.205712
0.0445636 -0.502814
0.0688711 -0.539581
0.088795 -0.594741
0.0827699 -0.633524
-0.0726362 -0.62042
-0.0903165 -0.602559
-0.0415931 -0.395706
0.0443142 -0.37018
-0.095439 -0.57061
-0.064697 -0.531771
-0.0409494 -0.511193
-0.0299008 -0.49704
0.00146059 -0.491373
-0.00361304 -0.49025
-0.0626663 -0.410201
0.0651959 -0.396265
0.00656246 -0.462335
-0.00830145 -0.482298
-0.00664141 -0.489461
0.00635405 -0.488261
0.00913605 -0.481303
0.00491251 -0.500871
0.0266038 -0.508823
-0.0222531 -0.507182
-0.00558206 -0.499865
-0.00503383 -0.479958
-0.00353979 -0.479018
-0.00135802 -0.478926
0.000178001 -0.478447
0.00305309 -0.478055
0.00531662 -0.478196
0.00642615 -0.479216
-0.0128596 -0.500993
0.0344509 -0.557641
-0.0075114 -0.527798
-0.0405582 -0.559563
0.0463404 -0.447064
-0.0314464 -0.461203
0.0372208 -0.524203
0.0420912 -0.54716
-0.00935921 -0.475547
0.0107614 -0.46924
-0.0561072 -0.555825
-0.0313418 -0.521827
-0.0277422 -0.482477
0.0265431 -0.482494
-0.0110044 -0.478251
-0.0200227 -0.481298
-0.00928649 -0.495975
0.00876729 -0.494516
0.0189527 -0.480324
0.0119334 -0.47769
0.0229278 -0.518916
-0.0163508 -0.512131
-0.00382411 -0.477858
0.00100454 -0.476524
0.00849813 -0.522543
0.0108949 -0.502374
0.0124283 -0.522242
-0.0147432 -0.526164
0.00818797 -0.513013
-0.00560195 -0.507638
-0.00420121 -0.50674
0.00039292 -0.508263
-0.0198595 -0.522705
-0.0435409 -0.48286
0.00900023 -0.653037
-0.0225726 -0.56793
0.00564268 -0.595214
-0.00171933 -0.644459
0.0137013 -0.55788
-0.00876242 -0.65257
0.0628284 -0.456704
0.0317397 -0.534203
0.00208204 -0.643889
0.00426049 -0.58192
0.0153046 -0.520304
0.0158289 -0.249594
0.0368749 -0.290061
0.0207398 -0.239247
0.0591464 -0.345488
-0.0144391 -0.129091
0.00251207 -0.158057
0.00761918 -0.204648
-0.00218903 -0.203189
0.0123564 -0.243582
-0.018104 -0.156969
-0.00852581 -0.166909
-0.0264057 -0.12516
0.0210532 -0.193354
0.0353385 -0.225741
-0.0377974 -0.100217
-0.0199519 -0.151944
-0.0197089 -0.262502
-0.0211242 -0.243652
-0.0399587 -0.30279
-0.0079257 -0.208562
0.0146632 -0.129482
-0.00240128 -0.158568
-0.0637716 -0.360764
-0.0176938 -0.258541
-0.000775725 -0.211922
0.0173118 -0.161104
0.0264398 -0.126857
0.00828831 -0.1702
0.0378189 -0.101541
-0.0209841 -0.194027
-0.0352025 -0.226607
0.0177794 -0.158437
-0.01392 -0.390514
0.0119191 -0.419467
0.013795 -0.358474
0.00584477 -0.457822
0 0
0 0
-0.0119085 -0.184233
-0.0345953 -0.356523
-0.0256108 -0.417164
0.0151026 -0.37519
-0.0133715 -0.349626
-0.0132213 -0.412556
0.012765 -0.167452
0 0
-0.0703809 -0.28287
-0.0073402 -0.45521
0.0284919 -0.399269
0.035738 -0.331091
-0.050655 -0.452276
-0.051798 -0.454564
-0.0184699 -0.497944
-0.0792348 -0.415175
0.0110268 -0.53796
-0.0545331 -0.445839
-0.0653232 -0.419229
0.066469 -0.429587
0.042664 -0.46705
0.0704632 -0.431517
0.0125598 -0.507606
0.0802719 -0.405996
0.0693499 -0.401989
0.0624334 -0.431737
0.0603397 -0.367392
0.0616743 -0.364971
0.037188 -0.309097
0.0196435 -0.256999
0.0566253 -0.360488
-0.0616644 -0.376576
-0.0440025 -0.327074
-0.0659501 -0.37852
-0.0264595 -0.273885
-0.0595775 -0.377535
-0.0188311 -0.20861
-0.0361523 -0.286325
-0.020264 -0.194584
-0.0455185 -0.346008
0.0065842 -0.0658835
0.0025128 -0.164025
-0.0222792 -0.245756
-0.0072546 -0.462089
-0.00579576 -0.459868
-0.017638 -0.446094
-0.000512336 -0.464338
-0.0320199 -0.431548
-0.00761408 -0.462314
0.00413266 -0.463073
0.0129978 -0.456054
0.0210595 -0.433257
0.00778832 -0.454028
0.0373237 -0.411647
0.0181421 -0.455106
0.013215 -0.192704
0.0169692 -0.17801
0.0334261 -0.264124
-0.00783055 -0.0638554
0.0436959 -0.320243
0.0161035 -0.229832
-0.00627861 -0.155908
-0.0522163 -0.449331
-0.0371767 -0.471305
-0.0162733 -0.497669
-0.024892 -0.487577
0.0637053 -0.421618
0.0404189 -0.465524
0.0149888 -0.499175
0.0165559 -0.496464
-0.0580936 -0.433752
-0.044566 -0.461977
-0.0322235 -0.478614
-0.0392697 -0.469142
-0.0442816 -0.46028
-0.0459095 -0.45377
-0.052469 -0.443757
-0.0361613 -0.462599
-0.0427232 -0.451586
-0.0584038 -0.423844
-0.0348229 -0.472636
0.0469651 -0.452011
0.040906 -0.458449
0.0398012 -0.463916
0.032433 -0.473407
0.0268186 -0.474764
0.0367237 -0.470854
-0.028324 -0.467156
-0.0312588 -0.469754
-0.0291627 -0.474931
-0.0233783 -0.475914
-0.0236861 -0.467446
-0.0205008 -0.471678
-0.0164939 -0.474383
-0.012613 -0.473765
0.00936963 -0.471895
0.0040314 -0.471844
0.00321337 -0.473838
-0.000229134 -0.475165
-0.00613649 -0.474611
0.00401182 -0.475419
0.0270018 -0.470636
0.0326596 -0.464115
0.024502 -0.467906
0.0380192 -0.455813
0.0197202 -0.46635
0.0161588 -0.470732
0.020719 -0.475429
0.013748 -0.473302
0.00830796 -0.475222
0.0103105 -0.476775
0.00467595 -0.476388
0.013532 -0.474819
0.0161424 -0.475409
0.0223687 -0.033693
0.0217821 -0.08668
0.0171259 -0.0451264
0.0227314 -0.127268
0 0
0 0
0.027337 -0.0271605
0.045957 -0.0746304
0.0368823 -0.0936271
0.0418608 -0.0543676
-0.0496267 -0.265868
-0.0596772 -0.289157
-0.0420331 -0.0538598
-0.0375101 -0.0917391
-0.0459481 -0.0737864
-0.0249897 -0.121694
0.0498411 -0.264706
0.0597309 -0.287593
-0.0275022 -0.0270362
-0.0177674 -0.0443348
-0.0233584 -0.0842248
-0.0225306 -0.0333567
-0.054596 -0.393018
-0.02753 -0.445361
-0.0301315 -0.452178
-0.0193582 -0.45723
-0.0315843 -0.44435
-0.00478553 -0.463339
-0.0433272 -0.418619
-0.0377619 -0.450248
-0.0250496 -0.460222
-0.0511221 -0.414302
-0.0560171 -0.415233
-0.0481942 -0.435071
-0.0596598 -0.395946
-0.0500747 -0.386545
-0.041835 -0.31077
-0.0547294 -0.361745
-0.0496525 -0.344509
0.0455404 -0.32141
0.0507437 -0.342267
0.0356321 -0.291254
0.0598078 -0.37809
0.0509411 -0.361448
0.0568031 -0.416048
0.0602481 -0.398684
0.0554728 -0.389976
0.0631033 -0.411971
0.0488748 -0.392567
0.0503513 -0.431093
0.0536856 -0.437309
0.0313825 -0.455599
0.0217552 -0.458817
0.0203811 -0.462568
0.019718 -0.457082
0.00862822 -0.462489
0.0107514 -0.466059
0.040724 -0.446723
0.0408185 -0.424527
0.0311932 -0.444149
0.0432912 -0.434692
0.0530813 -0.44677
0.048173 -0.455971
0.0587196 -0.4336
0.0296695 -0.480563
0.0528979 -0.444974
0.0443505 -0.461615
0.0338586 -0.475679
-0.00537822 -0.471083
-0.0130519 -0.469751
-0.00877247 -0.472846
-0.020752 -0.465727
0.00118452 -0.469239
-0.00337921 -0.464683
-0.0132671 -0.464444
0.000110446 -0.46651
0.00840666 -0.609023
-0.00944977 -0.60735
-0.0061996 -0.629428
-0.00764691 -0.570442
-0.0205037 -0.596408
-0.0157195 -0.640404
0.0134054 -0.633097
0.0257911 -0.619645
0.019051 -0.590925
0.0220525 -0.524648
0.00845194 -0.551161
0.0169493 -0.56059
-0.00157689 -0.544596
0.0345497 -0.571604
0.0355083 -0.505199
0.0276938 -0.501194
0.0740352 -0.375039
0.0700345 -0.31526
0.0618932 -0.335551
0.0436567 -0.319803
0.0528121 -0.305969
0.07891 -0.354038
-0.0698912 -0.31706
-0.0771905 -0.385553
-0.0637308 -0.345229
-0.0545898 -0.315008
-0.0491071 -0.336837
-0.0776164 -0.355725
-0.0666496 -0.435573
-0.0676491 -0.441548
-0.0486263 -0.463425
-0.0857236 -0.416721
-0.0645969 -0.457178
-0.0286892 -0.501848
-0.0336439 -0.483563
-0.0664479 -0.430822
-0.074524 -0.413535
-0.00143302 -0.527265
0.0125594 -0.545973
-0.00269626 -0.519335
0.0266673 -0.57563
0.0255929 -0.564504
-0.0048711 -0.51356
-0.0198465 -0.493696
-0.0169985 -0.504917
8.4059e-05 -0.539598
-0.0534297 -0.447914
-0.0605571 -0.433366
-0.0610523 -0.434852
-0.061075 -0.427906
-0.0642377 -0.413733
-0.067779 -0.416025
-0.0627479 -0.433675
-0.0356339 -0.472558
-0.0435081 -0.462371
0.0264235 -0.488654
0.0136614 -0.511879
0.0285187 -0.492105
-0.00273737 -0.536227
0.0425323 -0.471147
0.0427424 -0.464184
0.0278624 -0.48377
0.0682992 -0.439628
0.0805045 -0.423909
0.0779332 -0.419031
0.0772416 -0.440958
0.0872658 -0.41079
0.0764451 -0.402961
0.0756565 -0.41466
0.0580849 -0.451552
0.0519587 -0.468587
0.0704524 -0.415006
0.0677704 -0.417471
0.0643196 -0.430399
0.0670935 -0.398519
0.0665892 -0.41356
0.0547474 -0.445761
0.0549737 -0.446644
0.0725184 -0.415723
0.0711054 -0.401241
0.0716263 -0.384917
0.0732186 -0.381995
0.0606603 -0.358903
0.0462033 -0.329898
0.0696733 -0.385102
0.0673943 -0.383921
0.066591 -0.385729
0.0642563 -0.38319
0.0501729 -0.341567
-0.065574 -0.373578
-0.0776484 -0.394118
-0.0741341 -0.395876
-0.0711996 -0.397768
-0.0524995 -0.34757
-0.06789 -0.394596
-0.066567 -0.399344
-0.0545343 -0.35569
-0.0638365 -0.394665
-0.0297425 -0.480519
-0.0184818 -0.49485
-0.0266895 -0.484875
-0.0275031 -0.484263
-0.0146563 -0.499525
-0.0371019 -0.472021
0.0139564 -0.502085
0.00052679 -0.51992
-0.00125572 -0.525738
0.00313581 -0.514384
-0.0102363 -0.533526
-0.0149191 -0.550962
0.0279667 -0.482075
0.0282991 -0.481439
0.0159321 -0.497355
0.0284563 -0.481076
0.00447883 -0.511887
0.0414631 -0.46412
0.0492211 -0.453404
0.0347849 -0.473543
0.00946091 -0.505234
0.0236714 -0.487693
0.0367857 -0.472136
0.0434383 -0.462433
-0.00199055 -0.519518
0.016512 -0.496676
0.0199727 -0.492675
0.00734095 -0.507117
-0.00405672 -0.512619
0.00791357 -0.526765
-0.0042482 -0.511818
0.0221275 -0.544752
0.0209348 -0.540907
-0.00329899 -0.512069
-0.00507836 -0.511915
0.0113262 -0.573676
0.0202156 -0.609572
0.0246955 -0.591518
0.00765485 -0.627478
0.0225752 -0.63693
0.036686 -0.604847
-0.00327984 -0.558454
-0.0178552 -0.605355
-0.00271334 -0.614555
-0.00734592 -0.58236
-0.0132577 -0.63347
-0.0169089 -0.539498
-0.0299394 -0.586156
-0.0253513 -0.62035
-0.0499195 -0.511635
-0.0411002 -0.560077
-0.031187 -0.528381
-0.0383917 -0.603349
-0.0529923 -0.582267
0.0463617 -0.633243
0.0397314 -0.651728
0.0527511 -0.658316
-0.0692093 -0.554013
-0.0805607 -0.508744
0.0658632 -0.664404
0.0493592 -0.61884
0.0611477 -0.505986
0.0447474 -0.501083
0.0459702 -0.541321
0.0384877 -0.602862
0.0530009 -0.58187
-0.037614 -0.632996
-0.0485121 -0.656748
-0.0341185 -0.654252
-0.0622778 -0.662946
0.0679737 -0.554004
0.0822326 -0.50943
-0.0352633 -0.606833
0.0759422 -0.524102
0.0845148 -0.519267
0.0751868 -0.513251
0.0911261 -0.524639
0.023752 -0.483006
0.0203636 -0.482593
0.0679894 -0.508634
0.0675459 -0.529081
0.0767969 -0.535436
0.0906937 -0.541622
0.104584 -0.545134
0.0994471 -0.533543
0.111121 -0.55481
0.0170273 -0.482293
0.0147281 -0.482141
0.0826006 -0.546427
0.110727 -0.592873
0.125038 -0.596397
0.121705 -0.582578
0.127291 -0.609531
0.0124476 -0.482047
0.0108797 -0.482015
0.115631 -0.568382
0.0969113 -0.58781
0.101925 -0.601205
0.112463 -0.617588
0.123361 -0.63275
0.126299 -0.621799
0.120102 -0.642118
0.116948 -0.665463
0.122528 -0.659789
0.100488 -0.612302
0.100031 -0.651813
0.106708 -0.662931
0.111471 -0.657034
0.100723 -0.667048
0.127603 -0.652865
0.132118 -0.644612
0.11624 -0.650528
0.093747 -0.640579
0.089833 -0.646717
0.0875203 -0.656231
0.0852728 -0.668427
0.0934522 -0.668832
0.0761172 -0.667337
0.135771 -0.63497
0.138349 -0.623867
0.0811151 -0.643454
-0.0851466 -0.654877
-0.093054 -0.668878