<?xml version="1.0"?>
<VTKFile type="UnstructuredGrid">
  <UnstructuredGrid>
  <Piece NumberOfPoints="3487"  NumberOfCells="1698">
    <Points>
      <DataArray type="Float64" NumberOfComponents="3" format="ascii">
39.973 48.6116 0
60.0276 48.6107 0
40.634 48.7425 0
41.2965 48.8646 0
41.9603 48.9776 0
42.6254 49.0816 0
43.2918 49.1766 0
43.9594 49.2626 0
44.6279 49.3395 0
45.2975 49.4074 0
45.9678 49.4662 0
46.6388 49.516 0
47.3105 49.5568 0
47.9826 49.5885 0
48.655 49.6111 0
49.3277 49.6247 0
50.0005 49.6292 0
50.6733 49.6246 0
51.346 49.611 0
52.0184 49.5883 0
52.6905 49.5565 0
53.3621 49.5157 0
54.0331 49.4658 0
54.7035 49.4069 0
55.373 49.339 0
56.0415 49.262 0
56.709 49.176 0
57.3753 49.0809 0
58.0404 48.9769 0
58.7041 48.8638 0
59.3665 48.7417 0
39.9934 49.6279 0
39.993 49.3738 0
39.9894 49.1198 0
39.9826 48.8657 0
19.893 69.528 0
39.9905 49.8895 0
39.9841 50.1511 0
39.9689 50.5294 0
39.9465 50.9074 0
39.9013 51.4535 0
39.8412 51.9982 0
39.7277 52.783 0
39.5832 53.5627 0
39.3194 54.6793 0
38.9919 55.7792 0
38.7158 56.5622 0
38.4073 57.3332 0
38.0671 58.0907 0
37.6957 58.8335 0
37.1043 59.8795 0
36.4512 60.8881 0
35.7386 61.8557 0
-0.0553992 49.4762 0
17.2834 69.3474 0
14.7195 68.8285 0
12.2451 67.9802 0
9.90219 66.8169 0
7.73087 65.3582 0
11.567 31.5708 0
0.153702 46.6578 0
0.760047 43.8979 0
1.75187 41.2519 0
0 0 0
0.113219 3.70568 0
0.519534 7.39869 0
1.21063 11.0533 0
2.18121 14.6431 0
3.09048 17.2855 0
49.9997 -0.355434 0
5.1116 0 0
10.2232 0 0
15.3348 0 0
100 0 0
57.4091 -0.344371 0
64.8185 -0.303964 0
72.22 -0.219133 0
88.4338 31.57 0
99.8869 3.70569 0
99.4806 7.3985 0
98.7896 11.053 0
97.819 14.6428 0
96.9097 17.2852 0
100.056 49.4758 0
99.8465 46.6574 0
99.2402 43.8975 0
98.2483 41.2515 0
80.1069 69.5274 0
99.8919 52.0862 0
99.388 54.6529 0
98.5528 57.1315 0
97.4009 59.4801 0
95.9523 61.6579 0
60.007 49.6269 0
77.5958 69.3791 0
75.1231 68.9176 0
72.7276 68.15 0
70.4472 67.0884 0
68.9576 66.1916 0
67.5513 65.169 0
66.2391 64.0282 0
65.0308 62.7779 0
64.2615 61.8548 0
63.5489 60.8872 0
62.8958 59.8786 0
62.3045 58.8326 0
61.5929 57.3324 0
61.0083 55.7783 0
60.6808 54.6785 0
60.417 53.5617 0
60.2725 52.7821 0
60.0074 49.3729 0
60.011 49.1188 0
60.0178 48.8648 0
52.8152 29.8873 0
26.5462 36.711 0
40.3464 24.0205 0
24.9594 22.3245 0
71.911 22.3428 0
72.7017 43.7539 0
54.7961 23.8399 0
15.2853 47.189 0
38.3576 49.2374 0
23.5501 65.0106 0
7.68105 7.71447 0
91.9603 7.69236 0
29.1375 56.6739 0
37.1739 51.706 0
28.0855 46.9947 0
29.7233 47.9563 0
71.517 46.4802 0
30.9804 48.855 0
70.5193 47.9573 0
31.6381 45.4465 0
30.8858 46.8996 0
70.065 46.47 0
68.9804 44.7967 0
31.2822 49.9493 0
30.8915 51.1706 0
28.1797 48.949 0
45.3112 41.0884 0
53.8415 40.7094 0
56.0237 40.2583 0
73.1323 47.2327 0
70.1221 49.1969 0
68.325 42.2294 0
32.3182 42.5599 0
26.1356 45.4777 0
27.6791 44.4848 0
30.3101 43.1164 0
70.4064 42.4274 0
72.6777 45.7463 0
44.8514 42.8805 0
51.43 41.7871 0
55.4073 42.3733 0
32.4448 48.8925 0
68.5624 49.4344 0
39.4826 41.8714 0
35.4452 43.1856 0
32.8951 46.3447 0
33.5743 48.0918 0
67.1071 48.0357 0
67.9824 46.2741 0
65.0671 42.8484 0
60.4135 41.5088 0
32.356 51.2089 0
28.2031 50.8056 0
41.7851 37.0957 0
46.8261 37.4998 0
52.0477 39.6721 0
58.672 39.0417 0
26.5885 51.6993 0
24.2852 50.1325 0
74.2397 49.7413 0
71.1772 50.4459 0
69.1572 52.027 0
67.9316 52.162 0
59.754 36.1629 0
66.494 40.4775 0
34.1161 40.8541 0
36.0375 35.5959 0
23.1759 46.9667 0
21.6471 43.0765 0
28.3609 41.601 0
74.3168 44.5068 0
76.648 48.3474 0
43.0571 43.4684 0
46.2704 42.7543 0
49.9682 42.8021 0
48.4336 42.5851 0
51.7626 43.8395 0
54.087 43.9552 0
52.9053 44.2508 0
56.2703 43.5038 0
33.8763 49.1866 0
33.7733 50.6989 0
66.5486 51.513 0
66.6022 49.5233 0
41.8351 43.7057 0
40.7065 43.4431 0
38.4654 43.0499 0
37.1468 43.6542 0
35.3488 45.3601 0
34.3263 46.638 0
66.0228 46.3616 0
65.0158 45.0898 0
63.1851 43.3376 0
61.6994 42.8891 0
58.8751 43.3032 0
57.5363 43.6196 0
33.3825 51.9209 0
29.1467 53.5246 0
40.8445 30.8218 0
50.8846 35.8139 0
55.662 34.0968 0
23.5367 53.2401 0
76.9386 51.7098 0
70.2568 53.132 0
66.4226 52.7537 0
65.459 34.9811 0
30.9692 34.4014 0
19.434 47.0832 0
26.1387 39.8404 0
71.9843 33.9243 0
72.0449 41.189 0
77.4885 45.1063 0
43.1692 44.9103 0
45.8109 44.5466 0
48.7653 44.6375 0
51.4431 45.2659 0
53.7681 45.3816 0
56.2164 45.2019 0
34.903 49.8984 0
65.093 50.1142 0
40.818 44.885 0
38.3705 45.2263 0
36.0288 47.1081 0
64.1397 46.8525 0
61.6468 45.1325 0
58.822 45.0011 0
36.0553 52.1731 0
34.9017 52.934 0
33.4845 53.4434 0
31.8782 55.2319 0
26.0568 58.6887 0
22.9623 57.0893 0
32.4176 22.542 0
47.0408 26.5073 0
63.1216 22.8774 0
19.958 54.7961 0
80.2185 54.0619 0
75.8306 55.5749 0
71.9659 55.9327 0
69.1154 55.2583 0
65.7926 53.7628 0
64.1157 53.6099 0
68.1329 28.8324 0
26.8 29.925 0
17.2122 51.5277 0
14.5937 42.2415 0
22.4244 33.8969 0
84.9129 46.651 0
84.7502 51.7953 0
75.155 37.7553 0
81.2177 43.7409 0
42.458 46.2407 0
41.4177 46.0489 0
44.9667 46.0863 0
43.6806 46.0032 0
47.7369 46.0275 0
46.3865 45.9601 0
50.62 46.3407 0
49.2723 46.2446 0
53.0504 46.7357 0
51.763 46.752 0
55.5123 46.348 0
54.2327 46.4401 0
58.0603 46.3014 0
56.779 46.4639 0
36.3709 48.4301 0
36.0216 49.4307 0
35.9185 50.9438 0
63.3973 51.8779 0
63.8382 50.8648 0
63.892 48.874 0
63.8389 47.9718 0
40.2887 45.7859 0
39.3729 45.965 0
38.0535 46.5686 0
37.3938 47.152 0
62.8318 46.6997 0
62.0155 46.376 0
60.5291 45.9283 0
59.3997 45.9846 0
38.0465 52.3778 0
36.157 53.6966 0
34.0453 56.5527 0
29.5574 59.6114 0
22.8243 61.145 0
21.7527 15.3111 0
39.9767 16.0505 0
48.9018 11.324 0
56.9344 16.776 0
76.6284 15.5407 0
15.5921 56.8334 0
84.5678 57.2676 0
73.453 59.2703 0
66.5457 55.4207 0
62.4735 53.3839 0
82.9414 7.79303 0
79.7211 22.4808 0
16.3057 7.87649 0
18.3664 22.2033 0
10.6949 46.5393 0
16.5986 35.8274 0
15.5544 30.2534 0
89.4382 49.4101 0
83.2795 31.0926 0
81.5669 39.1121 0
41.9289 47.142 0
44.2561 47.4168 0
46.8932 47.5673 0
49.5918 47.7308 0
52.2272 47.8106 0
54.7947 47.7022 0
57.3563 47.4478 0
37.3868 49.4755 0
37.91 51.1478 0
62.1959 50.6377 0
62.5836 48.7219 0
39.9723 47.1294 0
38.3963 47.8914 0
38.5098 48.6612 0
61.7667 48.359 0
61.714 47.496 0
59.7678 47.2292 0
38.8806 50.9103 0
61.3566 50.8438 0
39.1829 52.6911 0
38.4469 53.249 0
38.1513 54.3571 0
36.9979 55.1174 0
36.4882 56.889 0
34.835 58.4068 0
33.3217 60.2595 0
30.6984 62.3621 0
27.9316 64.5059 0
27.18 7.72033 0
38.6602 8.19134 0
59.8728 8.41185 0
71.7565 7.79257 0
19.1758 64.4462 0
14.8814 62.7048 0
10.6855 59.9108 0
6.24138 56.861 0
5.96007 50.932 0
94.2757 52.0274 0
93.3682 57.08 0
89.3879 60.4296 0
84.6384 62.949 0
79.5332 64.6302 0
74.6307 63.6746 0
70.3181 62.4043 0
66.8761 60.9602 0
65.253 58.2934 0
62.7481 56.974 0
62.1001 55.447 0
61.8045 54.3389 0
61.086 52.6063 0
93.5058 14.5018 0
89.7935 20.6381 0
86.0918 24.9473 0
6.24044 14.4957 0
13.0247 24.4191 0
9.79084 20.6298 0
5.73386 45.3691 0
5.64261 40.4304 0
12.3218 34.5513 0
94.2589 46.9134 0
88.1125 36.8833 0
93.3758 42.1936 0
41.092 47.9074 0
40.4309 47.7809 0
42.1331 48.0992 0
43.4643 48.2981 0
42.7974 48.2076 0
44.7509 48.3812 0
46.0905 48.5079 0
45.4199 48.4536 0
47.4414 48.5754 0
48.7858 48.6297 0
48.1132 48.6116 0
50.1338 48.7257 0
51.4791 48.7075 0
50.8066 48.7257 0
52.7667 48.6912 0
54.1091 48.6006 0
53.4385 48.6549 0
55.3892 48.5085 0
56.725 48.3455 0
56.0582 48.436 0
58.007 48.1831 0
59.3325 47.9481 0
58.6713 48.0745 0
39.3645 51.3636 0
39.3119 51.9089 0
60.9571 51.8242 0
60.9045 51.2789 0
38.0079 50.2386 0
39.1311 49.4245 0
61.7974 49.8301 0
61.8199 49.2617 0
60.9804 49.4675 0
39.5145 47.9596 0
39.1702 48.078 0
60.9499 48.0356 0
60.4626 47.8914 0
39.4625 50.454 0
60.5059 50.4712 0
39.486 49.8142 0
39.4813 50.0758 0
60.4871 50.093 0
60.4825 49.8314 0
39.6386 49.2378 0
39.6282 48.7299 0
39.6366 48.9838 0
60.5048 49.2626 0
60.5069 49.0087 0
60.5153 48.7549 0
61.0029 48.8989 0
39.2836 48.8481 0
60.958 50.0361 0
38.9785 50.0008 0
60.8977 47.1723 0
39.0561 47.3079 0
62.6369 49.6245 0
37.0371 50.4764 0
61.7552 51.6514 0
38.7826 51.8198 0
58.638 47.2852 0
56.0747 47.6101 0
53.5148 47.7943 0
50.9398 47.8269 0
48.2439 47.6348 0
45.5425 47.4998 0
42.9696 47.3336 0
40.8883 46.9501 0
89.1723 44.5736 0
10.9168 40.7114 0
13.2802 16.108 0
85.8801 16.3122 0
63.1921 55.1162 0
68.9522 58.2711 0
78.9883 59.6475 0
89.3323 54.6866 0
11.7341 52.6394 0
19.189 59.4715 0
66.696 15.6152 0
30.7764 15.3445 0
26.3093 61.9247 0
32.1295 57.7888 0
35.0033 54.4572 0
37.3104 52.9359 0
62.5307 47.8194 0
37.7361 48.4745 0
75.9174 28.5358 0
20.5371 28.4493 0
47.9173 19.1268 0
60.161 44.6841 0
63.1332 45.5802 0
37.051 45.8298 0
39.6893 44.6219 0
65.1472 48.1241 0
65.0398 52.1048 0
34.7998 51.4112 0
35.0056 48.3858 0
57.4828 45.3176 0
54.9501 45.0859 0
52.586 45.6772 0
50.3004 44.8546 0
47.2302 44.4204 0
44.3914 44.6728 0
41.9469 45.1477 0
74.3404 42.5154 0
80.2809 48.6818 0
17.9927 43.1488 0
21.2926 50.592 0
34.4591 29.548 0
59.9738 30.0944 0
67.8056 53.4025 0
73.4208 52.8324 0
54.4585 38.5945 0
46.5123 32.7527 0
26.2086 55.1988 0
31.9651 52.4306 0
69.7513 39.8608 0
30.9899 40.2305 0
57.5899 41.9219 0
63.2375 41.0953 0
66.8986 44.5999 0
33.6466 44.8909 0
37.2418 41.4787 0
41.7233 42.2639 0
68.0578 50.9218 0
32.7466 49.9872 0
53.2243 42.8244 0
49.6363 40.7498 0
74.2932 46.4986 0
25.7294 42.9694 0
71.9715 47.967 0
26.5417 47.9872 0
69.0673 47.9475 0
32.1429 47.7981 0
71.0628 44.9934 0
29.6287 46.0016 0
29.8175 49.9115 0
88.1378 34.2362 0
96.8904 38.774 0
91.2919 35.568 0
92.2315 38.4211 0
96.0823 37.6144 0
88.5024 40.6057 0
3.10974 38.7744 0
11.8951 33.0172 0
10.0157 34.8598 0
3.91799 37.6148 0
8.3194 37.3445 0
11.6978 36.877 0
11.4072 22.5257 0
11.0006 26.3691 0
9.38343 24.4796 0
11.8868 28.8354 0
4.14944 19.8696 0
5.35472 22.3868 0
8.24379 22.7257 0
11.5344 18.3671 0
13.1504 20.2646 0
8.01425 17.5659 0
6.96882 20.2506 0
5.19303 17.1803 0
6.70181 24.8284 0
7.80469 26.6077 0
4.21017 14.5697 0
9.75871 15.304 0
87.9433 22.7937 0
90.4089 24.4827 0
88.5578 26.6307 0
91.5486 22.7292 0
95.8507 19.8693 0
94.6454 22.3864 0
87.6934 29.1453 0
85.9881 20.6309 0
[...]
    <PointData>
      <DataArray type="Float64" NumberOfComponents="2" Name="Displacement" format="ascii">
-0.0012322 -0.372893
0.00180373 -0.373815
-0.000333241 -0.372471
0.000295405 -0.372002
0.000627864 -0.37168
0.000858617 -0.371406
0.00100021 -0.371205
0.00109098 -0.371066
0.00112698 -0.370947
0.00112886 -0.370863
0.00109714 -0.370814
0.0010415 -0.370792
0.000961487 -0.370773
0.00086526 -0.370772
0.000754368 -0.370787
0.000635017 -0.370816
0.000508154 -0.370843
0.000379726 -0.37088
0.000252829 -0.370928
0.000131733 -0.37099
2.1049e-05 -0.371051
-7.65816e-05 -0.37113
-0.000156129 -0.371227
-0.000213828 -0.371348
-0.000239585 -0.371479
-0.000234332 -0.371648
-0.000187308 -0.37186
-9.38578e-05 -0.372124
0.000104526 -0.372407
0.000388341 -0.37279
0.000921181 -0.373319
-0.00660556 -0.372143
-0.00536101 -0.372195
-0.00412378 -0.372293
-0.00283982 -0.372512
-0.106975 -0.471977
-0.00781051 -0.372145
-0.00901832 -0.372173
-0.01078 -0.372249
-0.0125581 -0.372368
-0.0151381 -0.372614
-0.0177508 -0.372943
-0.021585 -0.373567
-0.0254686 -0.374365
-0.0311469 -0.375831
-0.0368639 -0.37766
-0.040987 -0.379202
-0.0450911 -0.380931
-0.0491539 -0.382858
-0.0531588 -0.384961
-0.0588134 -0.388308
-0.0642806 -0.391992
-0.0695043 -0.395998
-0.0553992 -0.523771
-0.106063 -0.481485
-0.104075 -0.489976
-0.10127 -0.497362
-0.097814 -0.503655
-0.0939404 -0.508936
0.0705834 -0.327077
-0.0460581 -0.522495
-0.0350017 -0.519106
-0.0221112 -0.513266
0 0
-0.0260498 -0.0235964
-0.0367671 -0.0390901
-0.03814 -0.0515797
-0.031582 -0.0668995
-0.0226479 -0.081805
-0.000312442 -0.355434
0 0
0 0
0 0
0 0
0.020691 -0.344371
0.0416644 -0.303964
0.0547682 -0.219133
-0.0698389 -0.327881
0.0261537 -0.0235614
0.0369294 -0.0392285
0.0383296 -0.0517951
0.0317925 -0.067182
0.0228587 -0.082096
0.0555601 -0.52418
0.0462175 -0.522895
0.0352241 -0.519495
0.0222957 -0.513728
0.106919 -0.472625
0.0630005 -0.524349
0.0694471 -0.523515
0.0752049 -0.522091
0.0803733 -0.519938
0.0852026 -0.517247
0.00699121 -0.37309
0.106582 -0.462648
0.104841 -0.452029
0.101541 -0.440992
0.096619 -0.429843
0.0922281 -0.422242
0.0870647 -0.414842
0.0811355 -0.407777
0.0745233 -0.401132
0.0695711 -0.396855
0.0643626 -0.392865
0.0589112 -0.389191
0.0532729 -0.385854
0.0452399 -0.381854
0.0370418 -0.378564
0.0313471 -0.376756
0.0257058 -0.375307
0.021838 -0.374511
0.00578381 -0.373158
0.0045813 -0.373267
0.00330634 -0.373487
-0.00721742 -0.361799
0.0319223 -0.360273
0.0249886 -0.347551
0.0423288 -0.281918
-0.042698 -0.298627
-0.00656733 -0.390081
-0.0129204 -0.35636
-0.0300208 -0.441945
-0.00526015 -0.378205
-0.0881538 -0.45573
-0.0276261 -0.0502517
0.0271519 -0.0512164
-0.0464336 -0.42197
-0.0169121 -0.384298
-0.00515029 -0.399649
-0.00715977 -0.398915
0.00290384 -0.39783
-0.00946483 -0.398298
0.00770969 -0.400314
0.00401903 -0.387563
-0.00186698 -0.393166
0.00139177 -0.39475
-0.00558025 -0.387665
-0.0136898 -0.400264
-0.0193641 -0.404353
-0.0130781 -0.405866
0.00631097 -0.368467
-0.00495519 -0.368866
-0.00833909 -0.368807
0.0079197 -0.404094
0.0123315 -0.402929
-0.0142052 -0.379332
0.0135665 -0.378693
-0.00140691 -0.398204
0.00435894 -0.391451
0.0112686 -0.38276
-0.0130071 -0.382187
0.00128993 -0.397625
0.00540045 -0.369267
-0.00140481 -0.369165
-0.00559944 -0.369728
-0.00820703 -0.394555
0.0116631 -0.399382
0.0120217 -0.370451
0.0117061 -0.376258
0.00170621 -0.387403
-0.00413207 -0.389838
0.00477842 -0.392256
-0.0010372 -0.389894
-0.0123348 -0.377161
-0.0121687 -0.370979
-0.0180588 -0.399929
-0.0209629 -0.41144
0.0151734 -0.365469
0.00602348 -0.366655
-0.00284464 -0.368318
-0.013503 -0.368245
-0.0270498 -0.419013
-0.023875 -0.420973
0.0200702 -0.415943
0.0188607 -0.409384
0.0234491 -0.407284
0.0228389 -0.403606
-0.0185937 -0.365214
-0.0187779 -0.373231
0.0178383 -0.372836
0.0262151 -0.361645
-0.0122951 -0.411575
0.00214902 -0.396444
0.0156352 -0.379685
-0.00176438 -0.395903
0.0180905 -0.417673
0.00644514 -0.369756
0.00408945 -0.369215
0.000335778 -0.369441
0.00194301 -0.369258
-0.00117066 -0.369914
-0.00304574 -0.370131
-0.00193015 -0.370126
-0.00531358 -0.370338
-0.00815029 -0.391323
-0.0145636 -0.394532
0.0187021 -0.397859
0.01023 -0.394174
0.00714336 -0.370267
0.0084363 -0.370788
0.0107551 -0.37241
0.0101602 -0.374703
0.00593855 -0.380377
0.00156063 -0.384981
-0.00193607 -0.38602
-0.00627375 -0.381435
-0.0106241 -0.375621
-0.0108005 -0.373326
-0.00787176 -0.371307
-0.00626376 -0.370769
-0.0203294 -0.397989
-0.031854 -0.415514
0.022123 -0.357188
-0.00155886 -0.366221
-0.0122775 -0.364553
-0.0382898 -0.433836
0.0327923 -0.431215
0.0296047 -0.413386
0.0242575 -0.399538
-0.0291403 -0.360306
0.0346156 -0.35472
-0.0202097 -0.42389
0.0210262 -0.374147
-0.038048 -0.350074
-0.0166148 -0.379289
0.00559189 -0.405529
0.00464698 -0.37025
0.00330615 -0.369848
0.00120982 -0.369978
-0.000541425 -0.370323
-0.00187365 -0.370536
-0.00339984 -0.370883
-0.0102453 -0.389678
0.011478 -0.390869
0.00602906 -0.371415
0.00638011 -0.374675
0.000927721 -0.381935
-0.00126455 -0.382788
-0.00615842 -0.375532
-0.0051389 -0.372027
-0.0196464 -0.388964
-0.0239224 -0.394166
-0.0273232 -0.400125
-0.0371418 -0.408955
-0.0587039 -0.437624
-0.0552845 -0.44627
0.0396383 -0.318871
0.00785534 -0.358542
-0.0323014 -0.337502
-0.0503303 -0.45157
0.047859 -0.450724
0.0474196 -0.438846
0.0442733 -0.425517
0.0383023 -0.413582
0.0285663 -0.398701
0.0268711 -0.39195
-0.0398666 -0.338394
0.0452834 -0.329865
-0.042628 -0.45156
-0.0103482 -0.41813
0.0419706 -0.343049
0.0284594 -0.440947
0.047381 -0.461478
-0.0280933 -0.365681
0.00696051 -0.409175
0.00330678 -0.370847
0.00387522 -0.371324
0.00266167 -0.370338
0.00319949 -0.370461
0.00148582 -0.370319
0.00214262 -0.370269
8.47851e-05 -0.370545
0.000716518 -0.370444
-0.000840275 -0.370806
-0.000335673 -0.370707
-0.00196548 -0.371036
-0.00143635 -0.370864
-0.00278645 -0.371872
-0.00224244 -0.371377
-0.00337874 -0.383117
-0.0075116 -0.385595
-0.0140616 -0.388
0.0182595 -0.387477
0.0138675 -0.387939
0.00560719 -0.385378
0.00225717 -0.383852
0.00470602 -0.372249
0.00462139 -0.373564
0.00326192 -0.376524
0.00143788 -0.378708
-0.00223283 -0.379558
-0.00328748 -0.37738
-0.00419089 -0.374299
-0.00372407 -0.372845
-0.0198362 -0.381209
-0.0269355 -0.390064
-0.0422094 -0.40175
-0.0600905 -0.424623
-0.0723427 -0.454463
0.0249065 -0.206921
0.0210762 -0.339406
0.00136117 -0.358821
-0.0155042 -0.349865
-0.0292031 -0.223331
-0.0641429 -0.473865
0.0659199 -0.476072
0.0609745 -0.437385
0.0370976 -0.403802
0.0251378 -0.384891
0.00316952 -0.0911164
-0.037229 -0.259345
-0.00534568 -0.0871495
0.0322161 -0.2452
-0.0371975 -0.464609
0.0323494 -0.357962
0.0558859 -0.30974
0.0474226 -0.475852
-0.054043 -0.319302
-0.0157124 -0.380197
0.00220065 -0.371278
0.00187819 -0.37074
0.0013325 -0.370629
0.000546459 -0.37074
-0.000223818 -0.370923
-0.000846279 -0.371205
-0.00123598 -0.371811
-0.00680611 -0.38149
-0.0140207 -0.381065
0.0120351 -0.381989
0.00420371 -0.38143
0.00216511 -0.373008
-0.00028204 -0.376935
-0.00282355 -0.377286
0.00237825 -0.378706
-0.000382036 -0.377754
-0.00144921 -0.373536
-0.0126579 -0.377093
0.0127184 -0.378936
-0.0211714 -0.3762
-0.0240248 -0.3798
-0.0296308 -0.381591
-0.03375 -0.387372
-0.0430099 -0.390726
-0.0513715 -0.399588
-0.0614538 -0.408052
-0.0730123 -0.421982
-0.084336 -0.436211
0.0185382 -0.219401
0.0069533 -0.329704
-0.00654124 -0.337596
-0.0176861 -0.236216
-0.0879179 -0.472571
-0.084299 -0.48631
-0.0786154 -0.497316
-0.0732201 -0.50849
-0.0573512 -0.501702
0.0608082 -0.504911
0.0736452 -0.507937
0.0801718 -0.498692
0.0848397 -0.485505
0.0879908 -0.468467
0.0815577 -0.447706
0.0736597 -0.427549
0.0652197 -0.410237
0.0509461 -0.400789
0.043461 -0.387838
0.0354357 -0.384091
0.0297393 -0.382272
0.0210502 -0.378359
0.0257126 -0.0910252
-0.00121697 -0.165103
-0.0296882 -0.242959
-0.0260611 -0.0891665
0.0245878 -0.228421
0.000230344 -0.160326
-0.0392465 -0.4928
-0.0171181 -0.484541
0.0320003 -0.369584
0.0450176 -0.496223
-0.0117232 -0.399895
0.0256686 -0.48013
0.00100057 -0.371896
0.000882199 -0.372364
0.00120758 -0.371426
0.00134874 -0.371055
0.00129924 -0.371219
0.0013677 -0.370856
0.00123266 -0.370769
0.00131196 -0.370805
0.00101642 -0.370757
0.000737498 -0.37079
0.000882346 -0.370772
0.000433816 -0.370858
0.000126163 -0.370944
0.000279407 -0.370901
-0.000139929 -0.371056
-0.000376051 -0.371215
-0.000265211 -0.371131
-0.000512382 -0.371434
-0.000555256 -0.371775
-0.00054965 -0.371592
-0.000409799 -0.372255
-0.000110504 -0.373013
-0.000286142 -0.372598
-0.0147435 -0.375099
-0.0173554 -0.375439
0.0172684 -0.377564
0.0146762 -0.377191
-0.00980094 -0.3801
-0.00570304 -0.375723
0.00828026 -0.380019
0.00585621 -0.379672
0.00635701 -0.377013
0.000179856 -0.373993
-0.00037715 -0.374974
0.000815876 -0.376172
0.000139902 -0.374814
-0.0104474 -0.374531
0.0108792 -0.375323
-0.00746947 -0.374385
-0.00869236 -0.374416
0.00914217 -0.375207
0.00793493 -0.375174
-0.00470523 -0.373796
-0.00217699 -0.373929
-0.00348973 -0.373845
0.00529184 -0.375266
0.00410645 -0.375267
0.00290201 -0.375285
0.00389739 -0.376849
-0.00303188 -0.375026
0.00892822 -0.377107
-0.00840129 -0.376432
-0.00147856 -0.375583
0.00163347 -0.374854
0.00782556 -0.382591
-0.0113213 -0.383678
0.0165927 -0.38091
-0.0169915 -0.377792
-0.0013689 -0.372428
-0.0010601 -0.371449
-0.00055688 -0.371046
0.000149611 -0.37083
0.000956522 -0.370669
0.00165373 -0.370644
0.00200469 -0.370967
0.00249047 -0.371906
0.0296676 -0.456237
-0.0124835 -0.43588
-0.00202978 -0.150282
-0.00149912 -0.15898
0.033999 -0.389126
0.05269 -0.417397
0.0680673 -0.45971
0.0636449 -0.489242
-0.0558923 -0.479139
-0.0692613 -0.465682
-0.0321139 -0.305515
0.0341968 -0.285752
-0.0731125 -0.441242
-0.0494837 -0.411387
-0.0312475 -0.395544
-0.022761 -0.384656
0.00100449 -0.380218
-0.00265316 -0.37936
-0.0480428 -0.316876
0.0499076 -0.306071
0.00506183 -0.357219
-0.00647179 -0.373167
-0.00520388 -0.378699
0.00498172 -0.377776
0.00711064 -0.372395
0.00364855 -0.38751
0.0202534 -0.393693
-0.0169261 -0.392412
-0.00416277 -0.386735
-0.00394581 -0.371343
-0.00277083 -0.370591
-0.00106857 -0.370509
0.000133516 -0.370132
0.00237391 -0.369832
0.00414239 -0.369957
0.00501894 -0.370773
-0.00990064 -0.387326
0.0264651 -0.43093
-0.00585086 -0.407766
-0.0311186 -0.432484
0.0356293 -0.34553
-0.024206 -0.356537
0.0284113 -0.405518
0.0322057 -0.423095
-0.00722831 -0.36784
0.00828783 -0.362843
-0.0429576 -0.429789
-0.0239121 -0.403667
-0.0213493 -0.373091
0.020432 -0.373122
-0.00852449 -0.369987
-0.0154579 -0.372307
-0.00722341 -0.38365
0.00682486 -0.382535
0.0146349 -0.371565
0.00924057 -0.369558
0.0174626 -0.401409
-0.0124212 -0.396176
-0.0029722 -0.369674
0.000774765 -0.368619
0.00646947 -0.404009
0.00839238 -0.388396
0.00945418 -0.403854
-0.0112493 -0.406839
0.00617807 -0.3968
-0.00419144 -0.392672
-0.00329949 -0.391877
0.000383671 -0.393078
-0.0151342 -0.404272
-0.0331533 -0.372692
0.00742164 -0.503834
-0.016879 -0.438156
0.00476914 -0.459272
-0.000807333 -0.497219
0.0107912 -0.43065
-0.00724339 -0.503471
0.0479341 -0.352578
0.0239665 -0.412134
0.00108147 -0.496777
0.00283239 -0.448993
0.0114702 -0.401578
0.0118413 -0.193067
0.027967 -0.224419
0.0155137 -0.185214
0.0450959 -0.267149
-0.01162 -0.100156
0.00140309 -0.12256
0.00540853 -0.158489
-0.00198123 -0.157155
0.0092416 -0.18831
-0.0143116 -0.12156
-0.0070136 -0.12932
-0.0207557 -0.097046
0.015651 -0.14985
0.0266251 -0.174888
-0.0294815 -0.0777415
-0.0156548 -0.117589
-0.0148509 -0.203006
-0.0158225 -0.188605
-0.0303616 -0.234217
-0.00565553 -0.161504
0.0117886 -0.100458
-0.00132168 -0.122955
-0.0486619 -0.278869
-0.0133736 -0.199826
-0.000320294 -0.163877
0.0136903 -0.124744
0.0207761 -0.0983541
0.00682147 -0.131856
0.0294931 -0.0787619
-0.0156018 -0.15037
-0.0265243 -0.175556
0.0139688 -0.12259
-0.010888 -0.30145
0.00906891 -0.323916
0.0104254 -0.276651
0.004462 -0.353649
0 0
0 0
-0.00925558 -0.142006
-0.0267718 -0.27516
-0.0198463 -0.322107
0.0118024 -0.28958
-0.0100963 -0.269797
-0.0100715 -0.318562
0.00989273 -0.129053
0 0
-0.0540674 -0.218362
-0.00561613 -0.351625
0.0220709 -0.308238
0.0276362 -0.255488
-0.0387354 -0.349447
-0.0395484 -0.3511
-0.0140165 -0.384554
-0.0604409 -0.320703
0.00861991 -0.415468
-0.0417759 -0.344531
-0.0499829 -0.32387
0.0507693 -0.331868
0.0325462 -0.360687
0.0537817 -0.333326
0.00945551 -0.391961
0.061229 -0.313595
0.0530113 -0.310502
0.0477395 -0.333561
0.0461291 -0.283767
0.0471004 -0.281972
0.028385 -0.238805
0.0149241 -0.198547
0.0433561 -0.278395
-0.0471818 -0.29084
-0.0336498 -0.252635
-0.0503837 -0.292383
-0.0202009 -0.211539
-0.0456724 -0.29156
-0.014451 -0.160968
-0.027917 -0.220896
-0.0156309 -0.150027
-0.0351074 -0.267059
0.00510818 -0.0508534
0.00207039 -0.126706
-0.0170442 -0.18974
-0.00561791 -0.356968
-0.00451503 -0.355223
-0.0136677 -0.344546
-0.000393779 -0.358693
-0.0247343 -0.333292
-0.00588259 -0.357186
0.00319311 -0.357743
0.0100592 -0.352282
0.016318 -0.334588
0.00606314 -0.350692
0.0288231 -0.31786
0.0140068 -0.351586
0.0100983 -0.148723
0.0130635 -0.137258
0.0257864 -0.203756
-0.00607003 -0.0492971
0.0336757 -0.247145
0.0122625 -0.17748
-0.00498546 -0.120462
-0.0400434 -0.34727
-0.0284697 -0.364227
-0.0124648 -0.384635
-0.0191162 -0.376925
0.0487697 -0.325734
0.0309169 -0.359708
0.0113888 -0.385608
0.0126415 -0.383626
-0.0445588 -0.335172
-0.0341995 -0.357103
-0.0247588 -0.370034
-0.0301719 -0.362708
-0.0340296 -0.355837
-0.0352909 -0.350766
-0.0402964 -0.342965
-0.027824 -0.357657
-0.0328629 -0.349044
-0.0448348 -0.327473
-0.0267877 -0.365475
0.0360931 -0.349399
0.0314559 -0.354424
0.0306023 -0.358692
0.0249566 -0.366096
0.0206597 -0.367198
0.0282315 -0.36407
-0.0218068 -0.36122
-0.0240647 -0.363267
-0.0224597 -0.367308
-0.0180247 -0.368109
-0.0182399 -0.361431
-0.0157964 -0.364776
-0.012722 -0.366917
-0.00972712 -0.366421
0.00722016 -0.36495
0.00310523 -0.364895
0.00247688 -0.366483
-0.000179008 -0.367537
-0.00473651 -0.367092
0.00309735 -0.367745
0.0207941 -0.363976
0.0251318 -0.358854
0.0188654 -0.361823
0.0292485 -0.352346
0.0151835 -0.360577
0.0124489 -0.364042
0.0159806 -0.367751
0.0106018 -0.366078
0.00641609 -0.367597
0.00798071 -0.368836
0.0036165 -0.368517
0.0104459 -0.367284
0.012462 -0.36775
0.0172801 -0.0260905
0.0168831 -0.0670309
0.0132241 -0.0348929
0.0177091 -0.0984511
0 0
0 0
0.0211429 -0.0210547
0.0356805 -0.0579017
0.0286425 -0.0725295
0.0324228 -0.0421567
-0.0376143 -0.205908
-0.0453272 -0.2239
-0.0325599 -0.0417665
-0.0291333 -0.071076
-0.0356776 -0.0572519
-0.0194585 -0.0941583
0.0377747 -0.205011
0.0453612 -0.222698
-0.021273 -0.0209595
-0.013721 -0.034286
-0.0181046 -0.0651448
-0.017407 -0.0258314
-0.0420741 -0.303494
-0.0212278 -0.344023
-0.0232185 -0.349401
-0.0149352 -0.353273
-0.024362 -0.343267
-0.00369391 -0.358036
-0.0334049 -0.323307
-0.0290693 -0.347958
-0.0192929 -0.355717
-0.0393476 -0.320004
-0.0430531 -0.320764
-0.037077 -0.336161
-0.0458017 -0.305809
-0.0385801 -0.298457
-0.0321209 -0.239911
-0.0420265 -0.279316
-0.0382009 -0.265947
0.034997 -0.248109
0.0389203 -0.264274
0.0273151 -0.224868
0.0458553 -0.291986
0.0392162 -0.279036
0.0436419 -0.321403
0.0462369 -0.307937
0.0426545 -0.301154
0.04836 -0.318255
0.0376577 -0.30312
0.0387225 -0.333077
0.0412368 -0.337944
0.0241578 -0.352135
0.0167561 -0.354595
0.0156919 -0.357577
0.0152006 -0.353179
0.00664827 -0.357401
0.00827754 -0.36031
0.0313377 -0.345225
0.0314702 -0.327884
0.0240532 -0.343117
0.0333328 -0.335827
0.0407211 -0.345296
0.0369325 -0.352415
0.0450091 -0.335052
0.0227371 -0.371425
0.0406085 -0.343911
0.0340565 -0.356855
0.0260198 -0.367782
-0.00414542 -0.364277
-0.0100556 -0.363224
-0.00676331 -0.365684
-0.0159819 -0.360055
0.00090988 -0.362815
-0.00260723 -0.35915
-0.0102225 -0.358997
8.15533e-05 -0.360631
0.00596168 -0.469881
-0.00771189 -0.468632
-0.00525754 -0.485638
-0.00623581 -0.44022
-0.0161364 -0.460259
-0.0125649 -0.494111
0.00977668 -0.488452
0.0192932 -0.47807
0.0141423 -0.455903
0.0166007 -0.404847
0.00612312 -0.4253
0.0125889 -0.432514
-0.00150409 -0.420343
0.026043 -0.440972
0.0269437 -0.389831
0.0209972 -0.386842
0.0564646 -0.289877
0.053236 -0.24406
0.0471351 -0.259605
0.0332466 -0.247262
0.0401446 -0.236805
0.0599858 -0.273937
-0.0531372 -0.245439
-0.0588888 -0.297917
-0.048561 -0.267039
-0.0415282 -0.24376
-0.0374561 -0.260353
-0.0590196 -0.275237
-0.0508846 -0.336456
-0.0516313 -0.341002
-0.0370969 -0.357848
-0.0653498 -0.321879
-0.0492686 -0.352932
-0.0217559 -0.387343
-0.0256114 -0.373357
-0.0507525 -0.332816
-0.0568921 -0.319439
-0.000887489 -0.40709
0.00985065 -0.421559
-0.00191066 -0.401073
0.0207439 -0.444378
0.0198583 -0.43588
-0.00362312 -0.396705
-0.0151108 -0.381365
-0.0128448 -0.38984
0.000336649 -0.416511
-0.0408953 -0.34611
-0.0463621 -0.334843
-0.046698 -0.335975
-0.0467989 -0.330619
-0.0491991 -0.319615
-0.0518229 -0.321381
-0.047962 -0.335047
-0.0272418 -0.365113
-0.0332926 -0.357283
0.0200949 -0.377336
0.0102613 -0.395175
0.0216663 -0.379909
-0.00234331 -0.413967
0.0324264 -0.363784
0.032628 -0.358538
0.0212266 -0.373638
0.0521245 -0.33953
0.0614079 -0.32743
0.0594634 -0.323682
0.0589164 -0.340479
0.0665138 -0.317294
0.0583459 -0.311255
0.0577481 -0.320309
0.0443277 -0.348708
0.0396137 -0.361727
0.0538265 -0.320586
0.0518085 -0.322501
0.049154 -0.33251
0.0513231 -0.307817
0.0509403 -0.319476
0.0418486 -0.344394
0.041999 -0.345047
0.0553788 -0.321136
0.0543276 -0.309924
0.0546852 -0.297345
0.0558811 -0.295146
0.0462991 -0.277364
0.0352406 -0.254963
0.0532139 -0.297464
0.051499 -0.296536
0.0509065 -0.297926
0.0491575 -0.295955
0.038377 -0.263812
-0.0500731 -0.288622
-0.0592545 -0.30446
-0.0566006 -0.305786
-0.0543921 -0.307237
-0.0400954 -0.26854
-0.0519043 -0.304781
-0.0509273 -0.308457
-0.0417605 -0.274686
-0.0488923 -0.30483
-0.0227532 -0.37131
-0.0141291 -0.382396
-0.020442 -0.374731
-0.0210918 -0.374309
-0.0112532 -0.386132
-0.0284392 -0.364825
0.0105649 -0.387783
0.00026444 -0.40157
-0.00114381 -0.405982
0.00230637 -0.397378
-0.00798213 -0.41211
-0.011683 -0.425384
0.0213354 -0.372399
0.0216388 -0.37201
0.0121388 -0.384261
0.0217361 -0.371682
0.00336443 -0.395508
0.0316928 -0.358582
0.0376783 -0.350368
0.0266299 -0.36595
0.00721877 -0.390439
0.0181195 -0.376896
0.0282153 -0.364948
0.0332787 -0.357389
-0.00157851 -0.401447
0.0126475 -0.383873
0.0153294 -0.380841
0.00564109 -0.392002
-0.00307279 -0.396136
0.00610096 -0.407086
-0.00325134 -0.395588
0.0170283 -0.420937
0.0160762 -0.418043
-0.00255189 -0.395847
-0.00382317 -0.395521
0.00904957 -0.442733
0.0159456 -0.470386
0.0193126 -0.456532
0.00636544 -0.48414
0.0178041 -0.491454
0.028502 -0.466854
-0.00215477 -0.43094
-0.0132137 -0.467042
-0.00159615 -0.474159
-0.00519846 -0.449323
-0.00966901 -0.48874
-0.0126262 -0.416287
-0.022499 -0.452213
-0.0189581 -0.478615
-0.0379187 -0.394707
-0.0310828 -0.432071
-0.0235686 -0.407663
-0.0289789 -0.465491
-0.0401888 -0.449215
0.0359717 -0.488714
0.0309511 -0.502884
0.040906 -0.507987
-0.0526277 -0.427403
-0.0612646 -0.392486
0.0509145 -0.512704
0.0382058 -0.477687
0.0464941 -0.390316
0.0340055 -0.386618
0.0348297 -0.417587
0.0290448 -0.465116
0.0401943 -0.448908
-0.0293009 -0.488476
-0.0376725 -0.506765
-0.0266677 -0.504806
-0.0481853 -0.511568
0.0516807 -0.427403
0.0625633 -0.393
-0.027431 -0.468364
0.0580955 -0.405519
0.0646728 -0.401806
0.057506 -0.397177
0.0697533 -0.405939
0.018027 -0.373888
0.0154334 -0.373564
0.0519768 -0.393624
0.0516587 -0.409334
0.0587634 -0.414227
0.0694338 -0.418992
0.0800992 -0.421696
0.0761486 -0.412785
0.0851234 -0.429133
0.0128814 -0.373326
0.0111244 -0.373203
0.063229 -0.422674
0.0848509 -0.458344
0.09582 -0.461059
0.0932582 -0.450458
0.0975513 -0.471124
0.00938291 -0.373124
0.00818648 -0.373094
0.0885911 -0.439559
0.0742614 -0.454436
0.0781247 -0.464705
0.0862142 -0.477266
0.0945599 -0.488874
0.0967982 -0.48051
0.0920816 -0.496015
0.089697 -0.513745
0.0939361 -0.509454
0.0770517 -0.473184
0.0768285 -0.503315
0.0819265 -0.511802
0.0855327 -0.507342
0.0773952 -0.514902
0.0977996 -0.504202
0.101244 -0.497925
0.0891499 -0.50241
0.0720134 -0.494714
0.0690665 -0.499359
0.0673483 -0.506592
0.0656799 -0.515871