<?xml version="1.0"?>
<VTKFile type="UnstructuredGrid">
  <UnstructuredGrid>
  <Piece NumberOfPoints="3487"  NumberOfCells="1698">
    <Points>
      <DataArray type="Float64" NumberOfComponents="3" format="ascii">
39.9736 48.773 0
60.0267 48.7725 0
40.6342 48.9038 0
41.2964 49.0257 0
41.9601 49.1385 0
42.6251 49.2424 0
43.2914 49.3373 0
43.9589 49.4232 0
44.6275 49.5001 0
45.297 49.568 0
45.9673 49.6268 0
46.6384 49.6766 0
47.3101 49.7174 0
47.9822 49.749 0
48.6547 49.7717 0
49.3274 49.7852 0
50.0003 49.7898 0
50.6731 49.7852 0
51.3459 49.7716 0
52.0184 49.7489 0
52.6905 49.7172 0
53.3621 49.6764 0
54.0332 49.6266 0
54.7035 49.5677 0
55.373 49.4998 0
56.0416 49.4229 0
56.7091 49.337 0
57.3753 49.242 0
58.0403 49.1381 0
58.7039 49.0252 0
59.3661 48.9033 0
39.9964 49.7889 0
39.9955 49.5349 0
39.9913 49.2809 0
39.984 49.0269 0
19.9402 69.7328 0
39.994 50.0505 0
39.9882 50.3121 0
39.9738 50.6905 0
39.9521 51.0685 0
39.9081 51.6147 0
39.8492 52.1595 0
39.7374 52.9446 0
39.5946 53.7246 0
39.3333 54.8419 0
39.0083 55.9426 0
38.734 56.7263 0
38.4273 57.498 0
38.0889 58.2563 0
37.7192 59 0
37.1303 60.0475 0
36.4796 61.0577 0
35.7693 62.0271 0
-0.0313467 49.7042 0
17.3302 69.5564 0
14.7654 69.0413 0
12.2897 68.1962 0
9.94528 67.0357 0
7.77224 65.5793 0
11.5355 31.7129 0
0.173594 46.8853 0
0.775039 44.1239 0
1.76116 41.4753 0
0 0 0
0.124484 3.71587 0
0.535401 7.41552 0
1.22703 11.0754 0
2.19467 14.6718 0
3.1 17.3206 0
49.9998 -0.201093 0
5.1116 0 0
10.2232 0 0
15.3348 0 0
100 0 0
57.4001 -0.19481 0
64.8003 -0.17187 0
72.1959 -0.123852 0
88.4649 31.7124 0
99.8756 3.71586 0
99.4647 7.41539 0
98.7731 11.0753 0
97.8054 14.6717 0
96.9001 17.3205 0
100.031 49.704 0
99.8265 46.885 0
99.2251 44.1236 0
98.2389 41.4751 0
80.0598 69.7324 0
99.8644 52.3144 0
99.3576 54.8807 0
98.5199 57.3587 0
97.3656 59.7062 0
95.9148 61.8829 0
60.0038 49.7883 0
77.5489 69.5798 0
75.0769 69.1135 0
72.6829 68.3411 0
70.4046 67.2746 0
68.9169 66.3745 0
67.5129 65.3486 0
66.2033 64.2048 0
64.9979 62.9515 0
64.2307 62.0266 0
63.5205 61.0572 0
62.8697 60.047 0
62.2809 58.9995 0
61.5728 57.4976 0
60.9918 55.9421 0
60.6668 54.8415 0
60.4056 53.7241 0
60.2627 52.9441 0
60.0047 49.5343 0
60.0089 49.2803 0
60.0163 49.0264 0
52.8183 30.0442 0
26.5321 36.8672 0
40.3355 24.1714 0
24.9408 22.447 0
71.9297 22.4725 0
72.7045 43.923 0
54.8017 23.9945 0
15.2983 47.3809 0
38.36 49.401 0
23.5889 65.2081 0
7.693 7.73618 0
91.9486 7.71448 0
29.1581 56.8567 0
37.1815 51.8723 0
28.0878 47.1679 0
29.7266 48.1291 0
71.5156 46.6526 0
30.9846 49.0275 0
70.5158 48.1307 0
31.6364 45.6144 0
30.8867 47.0699 0
70.0643 46.641 0
68.9828 44.9647 0
31.2883 50.1227 0
30.9001 51.3458 0
28.1855 49.1249 0
45.3084 41.248 0
53.8437 40.8691 0
56.0273 40.418 0
73.1288 47.4078 0
70.1165 49.3714 0
68.3312 42.3938 0
32.3123 42.7239 0
26.1362 45.6504 0
27.6772 44.6545 0
30.3052 43.2823 0
70.4121 42.593 0
72.6771 45.9186 0
44.8491 43.0404 0
51.4306 41.947 0
55.4097 42.5334 0
32.4485 49.0634 0
68.5571 49.6074 0
39.4774 42.0318 0
35.4401 43.3485 0
32.8945 46.5125 0
33.5762 48.2606 0
67.1049 48.2056 0
67.9828 46.4429 0
65.0724 43.0118 0
60.4188 41.6694 0
32.364 51.3821 0
28.2124 50.9839 0
41.7785 37.254 0
46.8235 37.6586 0
52.049 39.8316 0
58.6779 39.2012 0
26.6005 51.8809 0
24.2957 50.3151 0
74.2308 49.9216 0
71.1688 50.6233 0
69.1468 52.2034 0
67.9214 52.3368 0
59.7621 36.3211 0
66.5022 40.6392 0
34.1084 41.0156 0
36.0261 35.7527 0
23.1813 47.1452 0
21.6461 43.2485 0
28.354 41.7656 0
74.3175 44.6784 0
76.64 48.5286 0
43.0543 43.6285 0
46.2687 42.9142 0
49.9681 42.9621 0
48.4328 42.745 0
51.7631 43.9997 0
54.0883 44.1155 0
52.9061 44.4111 0
56.2726 43.6642 0
33.88 49.3561 0
33.7798 50.8698 0
66.5403 51.6853 0
66.5976 49.694 0
41.832 43.866 0
40.7029 43.6037 0
38.4608 43.2111 0
37.1424 43.8165 0
35.3463 45.5249 0
34.3257 46.8047 0
66.0235 46.5288 0
65.0185 45.255 0
63.1896 43.5003 0
61.7041 43.0508 0
58.8785 43.464 0
57.539 43.7802 0
33.3916 52.0933 0
29.1608 53.7047 0
40.8348 30.9767 0
50.8853 35.9726 0
55.6673 34.2548 0
23.5536 53.4283 0
76.9241 51.8968 0
70.2437 53.3111 0
66.4118 52.9267 0
65.4717 35.1373 0
30.9541 34.5553 0
19.4429 47.2671 0
26.1294 40.0026 0
72.0011 34.0761 0
72.0522 41.3534 0
77.486 45.2822 0
43.1672 45.0707 0
45.8094 44.7068 0
48.7648 44.7977 0
51.4434 45.4263 0
53.7689 45.542 0
56.2179 45.3624 0
34.9076 50.0671 0
65.0879 50.2834 0
40.8155 45.0458 0
38.3677 45.3885 0
36.0285 47.2735 0
64.1402 47.0182 0
61.6494 45.2951 0
58.8242 45.1622 0
36.0641 52.3414 0
34.9124 53.1046 0
33.4966 53.6166 0
31.8946 55.4091 0
26.0827 58.8783 0
22.9866 57.2828 0
32.4003 22.6805 0
47.0374 26.6628 0
63.1357 23.024 0
19.9801 54.9921 0
80.1974 54.2575 0
75.8097 55.7651 0
71.9463 56.1171 0
69.0984 55.4375 0
65.7799 53.9354 0
64.1037 53.7796 0
68.1504 28.9792 0
26.7801 30.0682 0
17.2309 51.7237 0
14.5981 42.4232 0
22.4058 34.0458 0
84.9005 46.8426 0
84.7295 51.9957 0
75.1674 37.9139 0
81.2147 43.9185 0
42.4566 46.4012 0
41.4161 46.2096 0
44.9656 46.2466 0
43.6792 46.1636 0
47.7363 46.1879 0
46.3856 46.1204 0
50.62 46.5011 0
49.272 46.4051 0
53.0507 46.8963 0
51.7631 46.9125 0
55.5132 46.5086 0
54.2332 46.6006 0
58.0615 46.4624 0
56.78 46.6247 0
36.3725 48.5959 0
36.025 49.5976 0
35.9248 51.1118 0
63.3891 52.0456 0
63.832 51.0328 0
63.8894 49.0408 0
63.8378 48.138 0
40.2867 45.947 0
39.371 46.1267 0
38.0521 46.7316 0
37.3933 47.316 0
62.8327 46.864 0
62.0168 46.5393 0
60.5309 46.0903 0
59.4013 46.146 0
38.0554 52.5428 0
36.1689 53.8654 0
34.064 56.7267 0
29.5839 59.7953 0
22.8562 61.3421 0
21.7418 15.4011 0
39.9675 16.1979 0
48.9012 11.4798 0
56.9412 16.9279 0
76.6412 15.6379 0
15.6203 57.0391 0
84.5388 57.4743 0
73.4261 59.4599 0
66.5292 55.5955 0
62.4623 53.5505 0
82.9401 7.83263 0
79.7375 22.5935 0
16.3079 7.91435 0
18.3521 22.3098 0
10.711 46.7413 0
16.5842 35.9828 0
15.5296 30.3879 0
89.4175 49.6169 0
83.3034 31.2313 0
81.5739 39.2771 0
41.928 47.3027 0
44.2553 47.5773 0
46.8926 47.7278 0
49.5916 47.8914 0
52.2273 47.9712 0
54.795 47.863 0
57.3568 47.6088 0
37.3899 49.6406 0
37.9163 51.3127 0
62.1905 50.803 0
62.5816 48.887 0
39.9714 47.2908 0
38.3965 48.0545 0
38.5112 48.8245 0
61.7656 48.5229 0
61.7141 47.6595 0
59.7684 47.3909 0
38.8863 51.0735 0
61.3508 51.0078 0
39.1924 52.8539 0
38.4576 53.4133 0
38.1645 54.5222 0
37.0129 55.2851 0
36.5072 57.0581 0
34.8578 58.5798 0
33.3488 60.4362 0
30.7306 62.5449 0
27.9688 64.6949 0
27.172 7.81588 0
38.6572 8.33463 0
59.8756 8.55853 0
71.7641 7.89541 0
19.2146 64.6512 0
14.9185 62.9159 0
10.72 60.1269 0
6.27346 57.082 0
5.98505 51.1502 0
94.2491 52.247 0
93.3359 57.3008 0
89.3526 60.6462 0
84.6011 63.1597 0
79.4944 64.8334 0
74.5948 63.8687 0
70.2856 62.5895 0
66.8473 61.1378 0
65.2305 58.4669 0
62.7288 57.1418 0
62.0844 55.6132 0
61.7912 54.5043 0
61.0766 52.77 0
93.4948 14.5411 0
89.7943 20.7095 0
86.105 25.0527 0
6.25155 14.5342 0
13.0136 24.5181 0
9.79043 20.6992 0
5.75079 45.5835 0
5.64975 40.6413 0
12.3075 34.712 0
94.2394 47.1292 0
88.1179 37.0572 0
93.3649 42.4025 0
41.0917 48.0684 0
40.4306 47.942 0
42.1326 48.26 0
43.4637 48.4587 0
42.7968 48.3683 0
44.7503 48.5418 0
46.09 48.6684 0
45.4193 48.6141 0
47.441 48.7359 0
48.7854 48.7902 0
48.1128 48.7721 0
50.1336 48.8863 0
51.479 48.8682 0
50.8064 48.8863 0
52.7667 48.8519 0
54.1093 48.7613 0
53.4386 48.8157 0
55.3894 48.6693 0
56.7252 48.5065 0
56.0584 48.5969 0
58.0071 48.3443 0
59.3325 48.1095 0
58.6713 48.2358 0
39.3712 51.5259 0
39.3197 52.0713 0
60.9494 51.9875 0
60.8979 51.4421 0
38.0123 50.4031 0
39.1337 49.5871 0
61.7936 49.9946 0
61.8173 49.4261 0
60.9775 49.6306 0
39.5145 48.1215 0
39.1704 48.2403 0
60.9495 48.1984 0
60.4625 48.0536 0
39.4672 50.616 0
60.501 50.6336 0
39.4894 49.9762 0
39.4853 50.2378 0
60.4829 50.2554 0
60.4789 49.9938 0
39.6408 49.3995 0
39.6293 48.8917 0
39.6382 49.1455 0
60.5024 49.425 0
60.5049 49.1711 0
60.514 48.9173 0
61.0011 49.062 0
39.285 49.0104 0
60.9539 50.1993 0
38.9823 50.1637 0
60.8982 47.3348 0
39.0554 47.4702 0
62.6334 49.7901 0
37.0422 50.6425 0
61.7478 51.8162 0
38.7902 51.9833 0
58.6385 47.4465 0
56.0751 47.7709 0
53.515 47.955 0
50.9397 47.9874 0
48.2435 47.7953 0
45.5418 47.6603 0
42.9687 47.4943 0
40.8873 47.111 0
89.1595 44.772 0
10.922 40.901 0
13.2809 16.1732 0
85.8809 16.3812 0
63.177 55.2846 0
68.9289 58.4518 0
78.9584 59.8469 0
89.3044 54.8992 0
11.7586 52.8475 0
19.2194 59.6735 0
66.71 15.748 0
30.7615 15.4688 0
26.3415 62.1159 0
32.1514 57.967 0
35.0172 54.6285 0
37.3206 53.1023 0
62.5301 47.984 0
37.7373 48.6387 0
75.9385 28.6734 0
20.5151 28.5823 0
47.9151 19.2819 0
60.1638 44.8457 0
63.1354 45.7441 0
37.0489 45.9934 0
39.6862 44.7832 0
65.1455 48.2919 0
65.0307 52.2752 0
34.8074 51.5811 0
35.0076 48.5532 0
57.4845 45.4784 0
54.9513 45.2464 0
52.5865 45.8376 0
50.3004 45.0149 0
47.2292 44.5805 0
44.3896 44.833 0
41.9447 45.3082 0
74.3448 42.6834 0
80.2693 48.8688 0
17.9952 43.3258 0
21.3063 50.7796 0
34.4434 29.6979 0
59.9844 30.249 0
67.793 53.5781 0
73.4065 53.0158 0
54.4616 38.7538 0
46.5087 32.91 0
26.2276 55.3851 0
31.9757 52.6054 0
69.7607 40.0225 0
30.9809 40.3922 0
57.5936 42.0821 0
63.2442 41.2566 0
66.9017 44.7661 0
33.6437 45.0566 0
37.2354 41.6396 0
41.7193 42.424 0
68.05 51.0957 0
32.7522 50.1588 0
53.2256 42.9845 0
49.6359 40.9095 0
74.2903 46.6738 0
25.7258 43.1378 0
71.9673 48.1421 0
26.5467 48.1636 0
69.0645 48.1194 0
32.1448 47.9682 0
71.0642 45.1632 0
29.6286 46.1719 0
29.8243 50.0866 0
88.1526 34.3983 0
96.8876 38.9933 0
91.2997 35.7588 0
92.2298 38.621 0
96.0831 37.8308 0
88.4979 40.793 0
3.1125 38.9936 0
11.8738 33.1704 0
10.0048 35.0392 0
3.91709 37.831 0
8.3178 37.5399 0
11.6925 37.0517 0
11.4017 22.6094 0
10.988 26.4663 0
9.37628 24.5597 0
11.8667 28.9512 0
4.1541 19.9127 0
5.35366 22.4397 0
8.24105 22.7942 0
11.5351 18.4352 0
13.1461 20.3463 0
8.02019 17.6185 0
6.97151 20.3065 0
5.20175 17.2221 0
6.69451 24.893 0
7.79257 26.6832 0
4.22274 14.6032 0
9.76531 15.3549 0
87.95 22.8817 0
90.4162 24.5643 0
88.5714 26.7321 0
91.5515 22.799 0
95.846 19.9126 0
94.6464 22.4395 0
87.715 29.2662 0
85.9942 20.7176 0
[...]
    <PointData>
      <DataArray type="Float64" NumberOfComponents="2" Name="Displacement" format="ascii">
-0.000612884 -0.211519
0.000931018 -0.212042
-0.00013134 -0.211242
0.000207874 -0.210957
0.000388155 -0.210761
0.000513308 -0.210597
0.000589087 -0.210475
0.000636846 -0.21039
0.00065411 -0.210318
0.000652452 -0.210267
0.000631964 -0.210236
0.000598152 -0.210222
0.000550682 -0.210209
0.000494164 -0.210207
0.00042941 -0.210215
0.000359915 -0.210231
0.000286196 -0.210246
0.000211583 -0.210267
0.000137809 -0.210295
6.72495e-05 -0.210331
2.50848e-06 -0.210367
-5.49917e-05 -0.210414
-0.000102373 -0.210471
-0.000137631 -0.210543
-0.000155066 -0.210621
-0.000155377 -0.210721
-0.000132228 -0.210847
-8.34317e-05 -0.211004
2.26326e-05 -0.211175
0.000174957 -0.211406
0.000461772 -0.211724
-0.00357747 -0.211142
-0.00288872 -0.211165
-0.00220438 -0.211211
-0.00149533 -0.211322
-0.0598267 -0.267234
-0.00424673 -0.211148
-0.00491824 -0.211169
-0.00589845 -0.211217
-0.00688879 -0.211289
-0.00832776 -0.211433
-0.00978649 -0.211623
-0.0119292 -0.211979
-0.0141017 -0.212432
-0.0172807 -0.213262
-0.020484 -0.214294
-0.0227957 -0.215162
-0.0250976 -0.216136
-0.0273771 -0.21722
-0.0296248 -0.218403
-0.0327991 -0.220286
-0.0358691 -0.222358
-0.0388027 -0.22461
-0.0313467 -0.295794
-0.059313 -0.272539
-0.0582007 -0.277266
-0.0566375 -0.281364
-0.0547167 -0.284844
-0.052572 -0.287753
0.0391196 -0.184964
-0.0261659 -0.295064
-0.0200104 -0.293148
-0.0128122 -0.289854
0 0
-0.0147848 -0.0134118
-0.0209001 -0.0222625
-0.0217469 -0.0294121
-0.0181199 -0.0381458
-0.0131334 -0.0466132
-0.000180116 -0.201093
0 0
0 0
0 0
0 0
0.0116665 -0.19481
0.0234787 -0.17187
0.0307254 -0.123852
-0.0387234 -0.185415
0.0148423 -0.0133912
0.0209902 -0.0223397
0.0218517 -0.0295329
0.0182359 -0.0383048
0.0132493 -0.0467772
0.0314326 -0.296027
0.0262507 -0.295292
0.0201314 -0.293369
0.0129111 -0.290117
0.0597895 -0.267603
0.0355446 -0.296143
0.0390955 -0.295701
0.0422602 -0.294938
0.0450972 -0.293772
0.0477506 -0.292312
0.00379174 -0.21168
0.0596047 -0.262024
0.0586327 -0.256078
0.0567842 -0.24989
0.0540242 -0.243632
0.0515597 -0.239364
0.0486607 -0.235207
0.0453308 -0.231237
0.041617 -0.227502
0.0388356 -0.225098
0.0359106 -0.222854
0.0328497 -0.220788
0.0296846 -0.218911
0.0251771 -0.216661
0.0205801 -0.214807
0.0173894 -0.213787
0.014231 -0.212968
0.0120679 -0.212516
0.00312346 -0.211711
0.00245839 -0.211763
0.0017552 -0.211874
-0.00406823 -0.204927
0.0178871 -0.204028
0.0140766 -0.196705
0.0237437 -0.159386
-0.0239906 -0.168858
-0.00372288 -0.220994
-0.0072871 -0.201724
-0.0169368 -0.250002
-0.00284186 -0.214519
-0.0492992 -0.258142
-0.0156838 -0.0285457
0.0154115 -0.0290886
-0.0259098 -0.239155
-0.00933909 -0.217974
-0.00282681 -0.226447
-0.00393734 -0.226074
0.00156416 -0.225425
-0.00521722 -0.225757
0.00424376 -0.226862
0.00232506 -0.219668
-0.00097006 -0.222837
0.000707719 -0.223713
-0.00319749 -0.21971
-0.00757695 -0.226882
-0.010752 -0.229196
-0.00725982 -0.229979
0.00357766 -0.208884
-0.00281163 -0.209106
-0.00472419 -0.209072
0.00438406 -0.228938
0.00682497 -0.228359
-0.00802364 -0.214977
0.00766655 -0.214628
-0.000751345 -0.225575
0.00248818 -0.221781
0.0063714 -0.216902
-0.00734182 -0.216559
0.000671496 -0.225278
0.00307301 -0.209354
-0.000800901 -0.20928
-0.00318726 -0.209614
-0.00450515 -0.223668
0.00644018 -0.226385
0.00680971 -0.210025
0.00663544 -0.213303
0.00103761 -0.219608
-0.00222265 -0.221014
0.00258441 -0.222371
-0.000662331 -0.221004
-0.00698858 -0.213805
-0.00689323 -0.210321
-0.0100116 -0.226722
-0.0116692 -0.233145
0.0085561 -0.207129
0.00340048 -0.207812
-0.00161262 -0.208782
-0.00762925 -0.208736
-0.0150901 -0.237396
-0.0133414 -0.238438
0.0111921 -0.23563
0.0104847 -0.231996
0.0130333 -0.23086
0.0126827 -0.228805
-0.010479 -0.206965
-0.0105875 -0.211526
0.0100608 -0.211314
0.0147455 -0.204901
-0.0068778 -0.233072
0.00118412 -0.224448
0.0087995 -0.215109
-0.00102101 -0.224257
0.0101144 -0.236537
0.00367312 -0.209644
0.00232595 -0.209319
0.000188318 -0.209442
0.00110331 -0.209338
-0.000672393 -0.209717
-0.00174461 -0.209847
-0.00110818 -0.209841
-0.00303511 -0.209972
-0.00446627 -0.221867
-0.00804932 -0.223692
0.0103609 -0.225577
0.00562789 -0.223476
0.00407288 -0.209943
0.00480209 -0.21024
0.00610451 -0.21115
0.00577263 -0.212449
0.00341033 -0.215662
0.000960893 -0.218265
-0.00117208 -0.218847
-0.00359933 -0.216254
-0.00603402 -0.212962
-0.00613195 -0.211667
-0.00448554 -0.210533
-0.00357737 -0.210225
-0.0112735 -0.225649
-0.0177519 -0.235486
0.0124495 -0.202308
-0.000881076 -0.207542
-0.00692029 -0.206564
-0.021413 -0.245712
0.0183414 -0.24421
0.0164849 -0.234296
0.0134646 -0.226538
-0.0163839 -0.204118
0.0194267 -0.200901
-0.0113643 -0.239928
0.0117942 -0.211914
-0.0213264 -0.198225
-0.00934691 -0.214875
0.00313264 -0.229625
0.00266518 -0.209934
0.0018905 -0.209688
0.000689011 -0.209754
-0.000315679 -0.209952
-0.00108245 -0.210079
-0.0019611 -0.21029
-0.0056317 -0.22096
0.00631763 -0.221638
0.00345608 -0.210613
0.0036586 -0.212466
0.000609978 -0.216573
-0.000799949 -0.217053
-0.0035361 -0.212951
-0.002957 -0.21096
-0.0108735 -0.220597
-0.0132708 -0.223523
-0.0151824 -0.22687
-0.0206873 -0.231844
-0.0328037 -0.247946
-0.0309223 -0.252752
0.0223016 -0.18036
0.00442339 -0.203013
-0.0181961 -0.190964
-0.0281936 -0.255654
0.0268116 -0.255167
0.0265064 -0.248579
0.0247065 -0.241135
0.0213409 -0.234443
0.0158688 -0.226084
0.0149089 -0.222297
-0.0223843 -0.191542
0.0253598 -0.18668
-0.0239393 -0.255542
-0.00594416 -0.236462
0.0234473 -0.194178
0.0160644 -0.249428
0.0266272 -0.261094
-0.0157326 -0.207078
0.00395642 -0.231566
0.00191777 -0.210285
0.00224612 -0.210567
0.00153325 -0.209974
0.00184683 -0.210053
0.000851096 -0.209952
0.00123048 -0.209927
4.31416e-05 -0.210078
0.000407554 -0.210021
-0.000493239 -0.210231
-0.000200586 -0.210172
-0.00114638 -0.210374
-0.000838045 -0.210268
-0.00163155 -0.210874
-0.00131313 -0.210578
-0.00179501 -0.217259
-0.00410157 -0.218664
-0.00775665 -0.220037
0.0100927 -0.219766
0.00764487 -0.220008
0.00303717 -0.21854
0.00116748 -0.21767
0.00271836 -0.2111
0.0026735 -0.211851
0.00191401 -0.21353
0.000894697 -0.214766
-0.00134089 -0.215241
-0.0019299 -0.214014
-0.00243377 -0.212269
-0.00216825 -0.211439
-0.0109647 -0.216254
-0.0149461 -0.221234
-0.0235083 -0.22782
-0.0335534 -0.240676
-0.0404606 -0.2574
0.0139822 -0.116905
0.0119248 -0.191971
0.000773632 -0.202998
-0.00877405 -0.197932
-0.0164284 -0.126167
-0.0359682 -0.268148
0.0369561 -0.269396
0.0340659 -0.247828
0.0206471 -0.228965
0.013928 -0.218337
0.00185013 -0.051515
-0.0208199 -0.146636
-0.00308339 -0.0492898
0.0179776 -0.138666
-0.0210614 -0.262654
0.017998 -0.202528
0.0310883 -0.175209
0.0267564 -0.269046
-0.0300823 -0.180639
-0.0087296 -0.215152
0.00129881 -0.210538
0.00109329 -0.210206
0.000767411 -0.21013
0.000309479 -0.210189
-0.000138374 -0.210295
-0.000504919 -0.210465
-0.000747965 -0.210831
-0.00370453 -0.216364
-0.00772092 -0.216154
0.0066136 -0.216671
0.00225323 -0.216326
0.00129622 -0.211553
-6.85374e-05 -0.213785
-0.00148681 -0.213994
0.00123699 -0.214792
-0.000303968 -0.214244
-0.000894495 -0.211851
-0.00695384 -0.213927
0.00698809 -0.214965
-0.0117019 -0.213453
-0.013302 -0.215475
-0.0164395 -0.21649
-0.0187525 -0.21974
-0.0239414 -0.221635
-0.0286364 -0.22662
-0.0342961 -0.231383
-0.0407882 -0.239212
-0.0471458 -0.247203
0.0105582 -0.123851
0.00401929 -0.18642
-0.00377826 -0.190909
-0.0100963 -0.133374
-0.0491872 -0.267552
-0.0471979 -0.275193
-0.0440793 -0.281273
-0.0411419 -0.287423
-0.0323679 -0.283531
0.0342824 -0.285349
0.0413682 -0.287128
0.0449379 -0.282053
0.0474901 -0.274755
0.0492162 -0.265269
0.0455948 -0.253649
0.0411508 -0.242342
0.036404 -0.232618
0.0283943 -0.2273
0.0241859 -0.22002
0.0196868 -0.217908
0.0164965 -0.216879
0.0116335 -0.214668
0.0147545 -0.0517267
-0.000386746 -0.0936379
-0.0164688 -0.137544
-0.0149569 -0.0506796
0.0135817 -0.12937
-0.000182074 -0.0909495
-0.0223182 -0.278427
-0.00998263 -0.273686
0.0177292 -0.208882
0.0255239 -0.280384
-0.00635217 -0.225976
0.0147325 -0.271243
0.000628431 -0.210905
0.000573383 -0.211191
0.00072868 -0.210617
0.000794418 -0.21039
0.000772642 -0.21049
0.000796155 -0.210267
0.000712266 -0.210211
0.000760637 -0.210235
0.000583755 -0.2102
0.000420493 -0.210218
0.000505106 -0.210208
0.000243505 -0.210255
6.4331e-05 -0.210305
0.000153615 -0.21028
-9.13684e-05 -0.210371
-0.00023117 -0.210466
-0.00016521 -0.210416
-0.000315436 -0.210597
-0.000349831 -0.2108
-0.000341127 -0.210691
-0.000282163 -0.211091
-0.000137361 -0.211554
-0.000222388 -0.211298
-0.00811197 -0.21282
-0.0095697 -0.213018
0.00952099 -0.214213
0.00807494 -0.213997
-0.00536954 -0.215598
-0.0030859 -0.213131
0.00452117 -0.215552
0.00317339 -0.215348
0.00344921 -0.213862
0.000184433 -0.212131
-0.000125178 -0.212686
0.000368906 -0.213364
-6.18904e-06 -0.212596
-0.00571805 -0.212488
0.00595673 -0.212939
-0.0040626 -0.212393
-0.00474173 -0.212416
0.00499067 -0.212867
0.0043204 -0.212843
-0.00252982 -0.21205
-0.00113329 -0.212108
-0.00185749 -0.212069
0.00285633 -0.21288
0.00220082 -0.212873
0.00153551 -0.212877
0.00208493 -0.213758
-0.00160475 -0.212728
0.00487637 -0.213926
-0.00458471 -0.21354
-0.000915541 -0.213017
0.00100096 -0.212604
0.00427115 -0.216991
-0.00622201 -0.217607
0.00915047 -0.216083
-0.00937089 -0.214333
-0.000838726 -0.211201
-0.00063543 -0.210611
-0.000333278 -0.210368
7.88597e-05 -0.21024
0.000547761 -0.21015
0.000956969 -0.210144
0.00117641 -0.210347
0.00147294 -0.210911
0.0168518 -0.257899
-0.00724812 -0.246327
-0.00133245 -0.0851022
-0.000671069 -0.0899976
0.0188895 -0.22073
0.029394 -0.236618
0.0380831 -0.260316
0.0357708 -0.276674
-0.0314466 -0.270975
-0.0387743 -0.26364
-0.0181545 -0.172704
0.0193167 -0.161488
-0.0408667 -0.25001
-0.0275951 -0.233237
-0.0173661 -0.224316
-0.0126042 -0.218193
0.000468757 -0.215631
-0.00139024 -0.215154
-0.0268781 -0.179271
0.0278596 -0.173126
0.00285754 -0.202148
-0.00370866 -0.211608
-0.00300269 -0.214738
0.00287671 -0.214218
0.00406514 -0.211168
0.00194648 -0.21972
0.0112173 -0.223253
-0.00936255 -0.222517
-0.00223513 -0.219284
-0.00227838 -0.210563
-0.00159685 -0.210116
-0.000620253 -0.210061
7.22462e-05 -0.209842
0.0013553 -0.209674
0.00237181 -0.209758
0.00288334 -0.210242
-0.00557157 -0.219389
0.0148548 -0.243932
-0.00335287 -0.230737
-0.0174352 -0.244869
0.0200185 -0.195626
-0.0136235 -0.201922
0.0157973 -0.229898
0.0179704 -0.239714
-0.00408782 -0.208501
0.00466793 -0.205571
-0.0239923 -0.243502
-0.0132866 -0.228837
-0.01201 -0.211389
0.0114984 -0.211422
-0.00484148 -0.209764
-0.00873636 -0.21105
-0.00412548 -0.217473
0.00390197 -0.216852
0.00827376 -0.210638
0.00524515 -0.209525
0.00967839 -0.227552
-0.00685846 -0.224598
-0.00169608 -0.209579
0.000437236 -0.208961
0.0035848 -0.228857
0.00472593 -0.219998
0.00523136 -0.228834
-0.00625294 -0.230486
0.00337724 -0.224904
-0.00226239 -0.222589
-0.00190869 -0.222054
0.00028023 -0.222755
-0.00839551 -0.22912
-0.0183595 -0.210601
0.00458513 -0.284535
-0.00909107 -0.24743
0.00303601 -0.25941
-2.81569e-05 -0.2808
0.00627718 -0.243395
-0.00448881 -0.284328
0.0266236 -0.199297
0.0131059 -0.232735
0.000178237 -0.28055
0.00122499 -0.253587
0.00619835 -0.226911
0.00637975 -0.109437
0.0153944 -0.127248
0.00835806 -0.105109
0.0250227 -0.151351
-0.00695806 -0.0570204
0.000350422 -0.0697185
0.0026661 -0.0899923
-0.00136063 -0.0890676
0.00497705 -0.106653
-0.00836578 -0.0690202
-0.00432039 -0.073478
-0.0120368 -0.0552006
0.00834942 -0.0851762
0.0145081 -0.0993562
-0.0169121 -0.0442493
-0.00905605 -0.0667006
-0.00809228 -0.115033
-0.00854232 -0.107017
-0.016759 -0.132762
-0.00281414 -0.0916911
0.00704989 -0.0571904
-0.000307704 -0.0699411
-0.0270344 -0.157916
-0.00732176 -0.113136
4.94415e-05 -0.0928499
0.00800659 -0.0708138
0.0120436 -0.055938
0.00420466 -0.0749076
0.0169145 -0.0448243
-0.00832492 -0.0854691
-0.0144545 -0.0997335
0.00809605 -0.0695176
-0.00627192 -0.170358
0.00501506 -0.183151
0.00570571 -0.156288
0.00247994 -0.200059
0 0
0 0
-0.00528205 -0.0800795
-0.0151846 -0.15546
-0.0112796 -0.182103
0.00678984 -0.163616
-0.00551801 -0.152395
-0.0055794 -0.18011
0.00562222 -0.0727616
0 0
-0.0303354 -0.123406
-0.00313179 -0.198908
0.0125373 -0.174219
0.015658 -0.144309
-0.0215882 -0.197757
-0.0219902 -0.1986
-0.00772095 -0.217481
-0.0335661 -0.181426
0.00496306 -0.234973
-0.0233456 -0.195021
-0.0278836 -0.183246
0.0282477 -0.187769
0.0180727 -0.203977
0.029892 -0.188567
0.0051443 -0.221626
0.0340014 -0.177391
0.0295296 -0.175642
0.0266054 -0.188753
0.0256986 -0.160508
0.0261989 -0.159553
0.0157746 -0.135127
0.00823553 -0.112341
0.0242091 -0.157437
-0.0263186 -0.164491
-0.0187538 -0.142905
-0.028041 -0.165399
-0.0112302 -0.119648
-0.0255493 -0.164881
-0.00809514 -0.0909175
-0.0157839 -0.124731
-0.00882268 -0.0846403
-0.0198152 -0.150896
0.00290782 -0.0287365
0.00127834 -0.0716809
-0.00950422 -0.107258
-0.00318984 -0.201955
-0.00258596 -0.200944
-0.0077679 -0.194873
-0.000221006 -0.20292
-0.0139928 -0.188492
-0.00332876 -0.202115
0.00180717 -0.202406
0.00570665 -0.199284
0.00927338 -0.189204
0.00346934 -0.198364
0.016299 -0.179713
0.00791804 -0.19892
0.00562116 -0.0840243
0.00735211 -0.077444
0.0145581 -0.115043
-0.00345112 -0.0278645
0.0189853 -0.139621
0.00679016 -0.100356
-0.00293226 -0.0681701
-0.0224124 -0.196603
-0.0159002 -0.206184
-0.00696225 -0.217766
-0.0107204 -0.213474
0.0272273 -0.184315
0.0172375 -0.203585
0.0062846 -0.218162
0.00702788 -0.217131
-0.0249469 -0.189707
-0.0191603 -0.202219
-0.0138959 -0.2096
-0.016934 -0.205448
-0.0191054 -0.20154
-0.0198223 -0.198634
-0.0226034 -0.194168
-0.0156503 -0.20259
-0.0184764 -0.197631
-0.025133 -0.185312
-0.0150614 -0.207068
0.0202653 -0.197855
0.0176776 -0.200739
0.0171943 -0.203191
0.0140379 -0.207441
0.0116401 -0.208109
0.0158581 -0.206251
-0.0122767 -0.204641
-0.0135462 -0.205833
-0.0126496 -0.208155
-0.0101681 -0.208641
-0.0102718 -0.204749
-0.00890334 -0.206705
-0.00718119 -0.207959
-0.00548947 -0.207663
0.00407 -0.206808
0.00174932 -0.206764
0.00139675 -0.207703
-0.00010293 -0.208322
-0.00267635 -0.208057
0.00175073 -0.20845
0.0117106 -0.206258
0.0141377 -0.203289
0.0106216 -0.205003
0.0164475 -0.19953
0.00854859 -0.204261
0.007015 -0.206287
0.00902004 -0.208453
0.00598245 -0.207482
0.00362814 -0.20837
0.00452749 -0.209104
0.00204936 -0.208907
0.00590314 -0.208191
0.00704327 -0.208464
0.00977603 -0.0148124
0.00959772 -0.0379811
0.00747655 -0.0197678
0.0101417 -0.0558109
0 0
0 0
0.0119818 -0.0119719
0.0203329 -0.0329634
0.0163285 -0.0412003
0.0184128 -0.0239799
-0.0206864 -0.116921
-0.0250086 -0.127101
-0.0184936 -0.0237608
-0.0166107 -0.0403822
-0.0203347 -0.0325977
-0.0111353 -0.0533935
0.0207728 -0.116415
0.0250218 -0.126425
-0.0120574 -0.0119188
-0.00775864 -0.0194282
-0.0102919 -0.0369226
-0.00984932 -0.0146664
-0.023718 -0.171607
-0.0119764 -0.194612
-0.0130882 -0.197749
-0.00843415 -0.199914
-0.0137526 -0.194207
-0.00208746 -0.202645
-0.018845 -0.182846
-0.0163623 -0.196972
-0.0108674 -0.201407
-0.022142 -0.181005
-0.0241759 -0.181468
-0.0208504 -0.190239
-0.0256768 -0.172963
-0.0217416 -0.168727
-0.0180089 -0.135599
-0.023568 -0.157914
-0.0214828 -0.150305
0.0196474 -0.140219
0.0217879 -0.149409
0.0152783 -0.127116
0.025657 -0.165119
0.0220738 -0.157714
0.024494 -0.181838
0.0259073 -0.174178
0.0239681 -0.170294
0.0270408 -0.180061
0.0212238 -0.171375
0.0217642 -0.188485
0.0231361 -0.191293
0.0135972 -0.199371
0.00943895 -0.200741
0.00883452 -0.202498
0.00857389 -0.199878
0.00374733 -0.202303
0.00466006 -0.204075
0.0176294 -0.195419
0.0177533 -0.185447
0.0135725 -0.194125
0.0187679 -0.190015
0.0228038 -0.19549
0.0206625 -0.199528
0.0251743 -0.189637
0.0127116 -0.210295
0.0227641 -0.194707
0.0190988 -0.202104
0.0146078 -0.208339
-0.00233764 -0.206389
-0.00566664 -0.205774
-0.00381523 -0.207223
-0.00900145 -0.203931
0.000510517 -0.205531
-0.0014724 -0.203337
-0.00576181 -0.203278
4.30507e-05 -0.204233
0.00293502 -0.265364
-0.00470256 -0.264693
-0.00336022 -0.274275
-0.0037992 -0.2487
-0.00937533 -0.260021
-0.00745641 -0.279064
0.00505514 -0.275849
0.0103973 -0.269983
0.00752903 -0.257457
0.00903408 -0.228689
0.00312998 -0.240238
0.00670781 -0.244261
-0.00108747 -0.237527
0.0142034 -0.249005
0.0148435 -0.220202
0.0115524 -0.218595
0.0313474 -0.164129
0.0294099 -0.138501
0.0261097 -0.147189
0.0184141 -0.140063
0.0221748 -0.134333
0.0331463 -0.155338
-0.0293635 -0.139271
-0.0327081 -0.168612
-0.0269216 -0.151361
-0.0229659 -0.138246
-0.0207945 -0.147414
-0.0326259 -0.15607
-0.0282925 -0.190336
-0.0286937 -0.192852
-0.0206022 -0.202339
-0.0362596 -0.182076
-0.0273535 -0.199486
-0.0119733 -0.218875
-0.0141767 -0.211075
-0.0282375 -0.188301
-0.0316312 -0.180713
-0.000319625 -0.230139
0.00569752 -0.238338
-0.000937029 -0.226822
0.0118564 -0.251175
0.0113099 -0.246446
-0.00193234 -0.224426
-0.00836534 -0.215752
-0.0070295 -0.22039
0.000415359 -0.235382
-0.022824 -0.195895
-0.0258851 -0.189497
-0.0260368 -0.190124
-0.0261624 -0.187102
-0.027485 -0.18083
-0.0288779 -0.181825
-0.0267143 -0.189583
-0.0151757 -0.20662
-0.018573 -0.202221
0.0111059 -0.213364
0.00556342 -0.223373
0.0119566 -0.214745
-0.0015157 -0.233992
0.0179902 -0.205675
0.0181365 -0.202814
0.0117626 -0.211333
0.0289655 -0.192029
0.0341006 -0.185216
0.0330349 -0.183112
0.0327139 -0.192504
0.0368967 -0.17948
0.032429 -0.17607
0.0320999 -0.181206
0.0246308 -0.197194
0.0219792 -0.204447
0.0299613 -0.18137
0.0288635 -0.182462
0.0273708 -0.188144
0.0286192 -0.174119
0.0284085 -0.180747
0.0233101 -0.194882
0.0233751 -0.195227
0.030804 -0.181678
0.0302419 -0.175315
0.0304066 -0.168223
0.0310552 -0.167026
0.0257307 -0.157011
0.0195639 -0.144342
0.0296049 -0.168271
0.028672 -0.167734
0.0283598 -0.168514
0.027415 -0.167391
0.0213961 -0.149212
-0.0278484 -0.163317
-0.0329251 -0.172254
-0.0314732 -0.172979
-0.0302714 -0.173792
-0.0223031 -0.151962
-0.02892 -0.172396
-0.0284043 -0.174483
-0.0233223 -0.155335
-0.0273136 -0.17242
-0.0126875 -0.210164
-0.00786962 -0.216449
-0.0114186 -0.212146
-0.011804 -0.211948
-0.00630771 -0.218664
-0.0159055 -0.206559
0.00579677 -0.219333
2.98523e-05 -0.227141
-0.000792376 -0.22957
0.00120675 -0.224838
-0.00458015 -0.233129
-0.00674199 -0.24048
0.0118474 -0.210688
0.0120575 -0.210551
0.00672631 -0.217448
0.0120926 -0.210328
0.00182223 -0.223828
0.0176511 -0.202915
0.0210318 -0.198318
0.0148656 -0.207155
0.00400763 -0.221018
0.0101119 -0.21336
0.0157956 -0.206657
0.0185982 -0.202328
-0.000929529 -0.227223
0.00706418 -0.217339
0.00858869 -0.215672
0.00316435 -0.221989
-0.00168561 -0.224235
0.00344455 -0.230448
-0.00181182 -0.223981
0.00958363 -0.238249
0.00901986 -0.236674
-0.00144391 -0.224182
-0.00207826 -0.223829
0.00536786 -0.250133
0.00929322 -0.265715
0.0111215 -0.257953
0.00397363 -0.273433
0.010374 -0.277582
0.0162609 -0.263814
-0.000906957 -0.243433
-0.00699956 -0.263752
-0.000491777 -0.267788
-0.00254947 -0.253764
-0.00499949 -0.276012
-0.00678487 -0.235136
-0.0122124 -0.255364
-0.0102114 -0.270291
-0.0209249 -0.222882
-0.017038 -0.243972
-0.0129045 -0.230228
-0.0158375 -0.262874
-0.0221231 -0.253672
0.0204833 -0.27612
0.0177257 -0.284048
0.0232738 -0.286946
-0.0290879 -0.241343
-0.0338696 -0.221632
0.0288378 -0.289628
0.0216807 -0.269963
0.0256969 -0.220375
0.0187775 -0.218357
0.0191458 -0.235782
0.015868 -0.262662
0.0221253 -0.253499
-0.0167801 -0.275947
-0.0214782 -0.286246
-0.0153452 -0.285112
-0.0273271 -0.288977
0.0285584 -0.241349
0.03461 -0.221912
-0.015678 -0.264648
0.0324059 -0.229963
0.0360905 -0.227881
0.0320675 -0.225277
0.0389432 -0.230205
0.00993843 -0.21216
0.00849064 -0.211973
0.0289643 -0.223277
0.0288044 -0.232096
0.0327901 -0.234851
0.0387744 -0.237537
0.044756 -0.23906
0.0425349 -0.234053
0.0475773 -0.243237
0.00706731 -0.211832
0.00608884 -0.211759
0.0353022 -0.239596
0.0474494 -0.259606
0.0535849 -0.261137
0.0521462 -0.2552
0.0545572 -0.266765
0.00512007 -0.211709
0.0044552 -0.211687
0.0495265 -0.249089
0.0415258 -0.257398
0.0437037 -0.263143
0.0482387 -0.270174
0.0529011 -0.276657
0.0541418 -0.272002
0.051531 -0.280617
0.0502239 -0.2904